                  Welcome to Q-Chem
     A Quantum Leap Into The Future Of Chemistry


 Q-Chem 5.3 (devel), Q-Chem, Inc., Pleasanton, CA (2020)

 Yihan Shao,  Zhengting Gan,  E. Epifanovsky,  A. T. B. Gilbert,  M. Wormit,  
 J. Kussmann,  A. W. Lange,  A. Behn,  Jia Deng,  Xintian Feng,  D. Ghosh,  
 M. Goldey,  P. R. Horn,  L. D. Jacobson,  I. Kaliman,  T. Kus,  A. Landau,  
 Jie Liu,  E. I. Proynov,  R. M. Richard,  R. P. Steele,  E. J. Sundstrom,  
 H. L. Woodcock III,  P. M. Zimmerman,  D. Zuev,  B. Alam,  B. Albrecht,  
 E. Alguire,  S. A. Baeppler,  D. Barton,  Z. Benda,  Y. A. Bernard,  
 E. J. Berquist,  K. B. Bravaya,  H. Burton,  K. Carter-Fenk,  D. Casanova,  
 Chun-Min Chang,  Yunqing Chen,  A. Chien,  K. D. Closser,  M. P. Coons,  
 S. Coriani,  S. Dasgupta,  A. L. Dempwolff,  M. Diedenhofen,  Hainam Do,  
 R. G. Edgar,  Po-Tung Fang,  S. Faraji,  S. Fatehi,  Qingguo Feng,  
 J. Fosso-Tande,  J. Gayvert,  Qinghui Ge,  A. Ghysels,  G. Gidofalvi,  
 J. Gomes,  J. Gonthier,  A. Gunina,  D. Hait,  M. W. D. Hanson-Heine,  
 P. H. P. Harbach,  A. W. Hauser,  M. F. Herbst,  J. E. Herr,  
 E. G. Hohenstein,  Z. C. Holden,  Kerwin Hui,  B. C. Huynh,  T.-C. Jagau,  
 Hyunjun Ji,  B. Kaduk,  K. Khistyaev,  Jaehoon Kim,  P. Klunzinger,  K. Koh,  
 D. Kosenkov,  L. Koulias,  T. Kowalczyk,  C. M. Krauter,  A. Kunitsa,  
 Ka Un Lao,  A. Laurent,  K. V. Lawler,  Joonho Lee,  D. Lefrancois,  
 S. Lehtola,  D. S. Levine,  Yi-Pei Li,  You-Sheng Lin,  Fenglai Liu,  
 Kuan-Yu Liu,  E. Livshits,  M. Loipersberger,  A. Luenser,  P. Manohar,  
 E. Mansoor,  S. F. Manzer,  Shan-Ping Mao,  Yuezhi Mao,  N. Mardirossian,  
 A. V. Marenich,  T. Markovich,  L. A. Martinez-Martinez,  S. A. Maurer,  
 N. J. Mayhall,  S. C. McKenzie,  J.-M. Mewes,  P. Morgante,  A. F. Morrison,  
 J. W. Mullinax,  K. Nanda,  T. S. Nguyen-Beck,  R. Olivares-Amaya,  
 J. A. Parkhill,  S. K. Paul,  F. Pavosevic,  Zheng Pei,  T. M. Perrine,  
 F. Plasser,  P. Pokhilko,  S. Prager,  A. Prociuk,  E. Ramos,  B. Rana,  
 D. R. Rehn,  F. Rob,  M. Scheurer,  M. Schneider,  N. Sergueev,  
 S. M. Sharada,  S. Sharma,  D. W. Small,  T. Stauch,  C. J. Stein,  
 T. Stein,  Yu-Chuan Su,  S. P. Veccham,  Zhen Tao,  A. J. W. Thom,  
 A. Tkatchenko,  T. Tsuchimochi,  N. M. Tubman,  L. Vogt,  M. L. Vidal,  
 O. Vydrov,  M. A. Watson,  J. Wenzel,  M. de Wergifosse,  T. A. Wesolowski,  
 A. White,  J. Witte,  A. Yamada,  Jun Yang,  K. Yao,  S. Yeganeh,  
 S. R. Yost,  Zhi-Qiang You,  A. Zech,  Igor Ying Zhang,  Xing Zhang,  
 Yan Zhao,  Ying Zhu,  B. R. Brooks,  G. K. L. Chan,  C. J. Cramer,  
 M. S. Gordon,  W. J. Hehre,  A. Klamt,  M. W. Schmidt,  C. D. Sherrill,  
 D. G. Truhlar,  A. Aspuru-Guzik,  R. Baer,  A. T. Bell,  N. A. Besley,  
 Jeng-Da Chai,  A. E. DePrince, III,  R. A. DiStasio Jr.,  A. Dreuw,  
 B. D. Dunietz,  T. R. Furlani,  Chao-Ping Hsu,  Yousung Jung,  Jing Kong,  
 D. S. Lambrecht,  WanZhen Liang,  C. Ochsenfeld,  V. A. Rassolov,  
 L. V. Slipchenko,  J. E. Subotnik,  T. Van Voorhis,  J. M. Herbert,  
 A. I. Krylov,  P. M. W. Gill,  M. Head-Gordon

 Contributors to earlier versions of Q-Chem not listed above: 
 R. D. Adamson,  B. Austin,  J. Baker,  G. J. O. Beran,  K. Brandhorst,  
 S. T. Brown,  E. F. C. Byrd,  A. K. Chakraborty,  C.-L. Cheng,  
 Siu Hung Chien,  D. M. Chipman,  D. L. Crittenden,  H. Dachsel,  
 R. J. Doerksen,  A. D. Dutoi,  L. Fusti-Molnar,  W. A. Goddard III,  
 A. Golubeva-Zadorozhnaya,  S. R. Gwaltney,  G. Hawkins,  A. Heyden,  
 S. Hirata,  G. Kedziora,  F. J. Keil,  C. Kelley,  Jihan Kim,  R. A. King,  
 R. Z. Khaliullin,  P. P. Korambath,  W. Kurlancheek,  A. M. Lee,  M. S. Lee,  
 S. V. Levchenko,  Ching Yeh Lin,  D. Liotard,  R. C. Lochan,  I. Lotan,  
 P. E. Maslen,  N. Nair,  D. P. O'Neill,  D. Neuhauser,  E. Neuscamman,  
 C. M. Oana,  R. Olson,  B. Peters,  R. Peverati,  P. A. Pieniazek,  
 Y. M. Rhee,  J. Ritchie,  M. A. Rohrdanz,  E. Rosta,  N. J. Russ,  
 H. F. Schaefer III,  N. E. Schultz,  N. Shenvi,  A. C. Simmonett,  A. Sodt,  
 D. Stuck,  K. S. Thanthiriwatte,  V. Vanovschi,  Tao Wang,  A. Warshel,  
 C. F. Williams,  Q. Wu,  X. Xu,  W. Zhang

 Please cite Q-Chem as follows:
 Y. Shao et al., Mol. Phys. 113, 184-215 (2015)
 DOI: 10.1080/00268976.2014.952696

 Q-Chem 5.3.0 for Intel X86 EM64T Linux

 Parts of Q-Chem use Armadillo 9.800.1 (Horizon Scraper).
 http://arma.sourceforge.net/

 Q-Chem begins on Fri Mar 13 14:28:39 2020  

Host: 
0

     Scratch files written to /lscratch/mscheure/uracil_eompol2_342822.Meister/qchem15369//
Processing $rem in /export/home/mscheure/data/qchem_ccman2_pe/qchem/config/preferences:
Processing $rem in /export/home/mscheure/.qchemrc:
Core orbitals will be frozen

Checking the input file for inconsistencies... 	...done.

--------------------------------------------------------------
User input:
--------------------------------------------------------------
$molecule
 0 1
N	1.1710407627	-0.9840618360	0.0000000000
C	1.2190300848	0.4059099856	0.0000000000
N	-0.0328079916	0.9869241337	0.0000000000
C	-1.2889429314	0.3481991121	0.0000000000
C	-1.1987276504	-1.1049030911	0.0000000000
C	0.0036738850	-1.7022349149	0.0000000000
H	2.0673345406	-1.4408916333	0.0000000000
O	2.2583702026	1.0223535594	0.0000000000
H	-0.0460905355	1.9980368940	0.0000000000
O	-2.3088409503	1.0011378772	0.0000000000
H	-2.1153350608	-1.6701857329	0.0000000000
H	0.1200273117	-2.7767536537	0.0000000000
$end

$rem
   METHOD            ccsd
   BASIS             aug-cc-pvdz
   CC_REF_PROP       true
   CC_EOM_PROP       true
   CC_POL            2 ! der
   CC_FULLRESPONSE   true ! Kaushik
   ee_singlets 	    [2,2]
   EOM_POL           2 ! der
   mem_total 240000
   threads 12
   symmetry         false
$end
--------------------------------------------------------------
 ----------------------------------------------------------------
             Standard Nuclear Orientation (Angstroms)
    I     Atom           X                Y                Z
 ----------------------------------------------------------------
    1      N       1.1710407627    -0.9840618360    -0.0000000000
    2      C       1.2190300848     0.4059099856     0.0000000000
    3      N      -0.0328079916     0.9869241337     0.0000000000
    4      C      -1.2889429314     0.3481991121    -0.0000000000
    5      C      -1.1987276504    -1.1049030911    -0.0000000000
    6      C       0.0036738850    -1.7022349149    -0.0000000000
    7      H       2.0673345406    -1.4408916334    -0.0000000000
    8      O       2.2583702026     1.0223535593     0.0000000000
    9      H      -0.0460905354     1.9980368940     0.0000000000
   10      O      -2.3088409503     1.0011378772    -0.0000000000
   11      H      -2.1153350608    -1.6701857329    -0.0000000000
   12      H       0.1200273116    -2.7767536537    -0.0000000000
 ----------------------------------------------------------------
 Molecular Point Group                 Cs    NOp =  2
 Largest Abelian Subgroup              Cs    NOp =  2
 Nuclear Repulsion Energy =         357.16246379 hartrees
 There are       29 alpha and       29 beta electrons
 Requested basis set is aug-cc-pVDZ
 There are 92 shells and 220 basis functions
 Total memory of 240000 MB is distributed as follows: 
   MEM_STATIC is set to 192 MB
   QALLOC/CCMAN JOB total memory use is  239808 MB
 Warning: actual memory use might exceed 240000 MB

 Total QAlloc Memory Limit 240000 MB
 Mega-Array Size       188 MB
 MEM_STATIC part       192 MB

                       Distance Matrix (Angstroms)
             N (  1)   C (  2)   N (  3)   C (  4)   C (  5)   C (  6)
   C (  2)  1.390800
   N (  3)  2.309554  1.380100
   C (  4)  2.797577  2.508637  1.409200
   C (  5)  2.372847  2.850984  2.394809  1.455900
   C (  6)  1.370590  2.433386  2.689406  2.423868  1.342600
   H (  7)  1.006000  2.032313  3.210123  3.803346  3.283299  2.080143
   O (  8)  2.282102  1.208400  2.291452  3.610805  4.059156  3.536529
   H (  9)  3.220919  2.033568  1.011200  2.065586  3.310107  3.700606
   O ( 10)  4.006319  3.577733  2.276077  1.211000  2.380706  3.557520
   H ( 11)  3.357236  3.927870  3.375967  2.181009  1.076900  2.119251
   H ( 12)  2.078070  3.367069  3.766780  3.427904  2.129366  1.080800
             H (  7)   O (  8)   H (  9)   O ( 10)   H ( 11)
   O (  8)  2.470642
   H (  9)  4.036433  2.502498
   O ( 10)  5.011429  4.567260  2.472619
   H ( 11)  4.188950  5.136055  4.211607  2.678323
   H ( 12)  2.361468  4.359556  4.777679  4.491310  2.494261
 
 A cutoff of  1.0D-14 yielded   4249 shell pairs
 There are     24397 function pairs (     28106 Cartesian)
 Smallest overlap matrix eigenvalue = 1.81E-05

 Scale SEOQF with 1.000000e-01/1.000000e-01/1.000000e-01

 Standard Electronic Orientation quadrupole field applied
 Nucleus-field energy     =     0.0000000098 hartrees
 Guess from superposition of atomic densities
 Warning:  Energy on first SCF cycle will be non-variational
 SAD guess density has 58.000000 electrons

 -----------------------------------------------------------------------
  General SCF calculation program by
  Eric Jon Sundstrom, Paul Horn, Yuezhi Mao, Dmitri Zuev, Alec White,
  David Stuck, Shaama M.S., Shane Yost, Joonho Lee, David Small,
  Daniel Levine, Susi Lehtola, Hugh Burton, Evgeny Epifanovsky,
  Bang C. Huynh
 -----------------------------------------------------------------------
 Hartree-Fock
 using 12 threads for integral computing
 -------------------------------------------------------
 OpenMP Integral computing Module                
 Release: version 2.0, May 2017, Q-Chem Inc. Pleasanton 
 -------------------------------------------------------
 A restricted SCF calculation will be
 performed using DIIS
 SCF converges when DIIS error is below 1.0e-08
 ---------------------------------------
  Cycle       Energy         DIIS error
 ---------------------------------------
    1    -415.5263742040      4.80e-02  
    2    -412.2953620705      6.28e-03  
    3    -412.4048290221      5.19e-03  
    4    -412.5268672743      6.08e-04  
    5    -412.5306630464      2.14e-04  
    6    -412.5311654061      7.68e-05  
    7    -412.5312904461      3.88e-05  
    8    -412.5313173956      1.53e-05  
    9    -412.5313204834      5.01e-06  
   10    -412.5313207874      1.52e-06  
   11    -412.5313208204      7.28e-07  
   12    -412.5313208286      1.80e-07  
   13    -412.5313208292      7.90e-08  
   14    -412.5313208293      2.38e-08  
   15    -412.5313208293      9.21e-09  Convergence criterion met
 ---------------------------------------
 SCF time:   CPU 279.98s  wall 24.00s 
 SCF   energy in the final basis set =     -412.5313208293
 Total energy in the final basis set =     -412.5313208293


 ------------------------------------------------------------------------------

   CCMAN2: suite of methods based on coupled cluster
           and equation of motion theories.

   Components:
   * libvmm-1.3-trunk
     by Evgeny Epifanovsky, Ilya Kaliman.
   * libtensor-2.5-trunk
     by Evgeny Epifanovsky, Michael Wormit, Dmitry Zuev, Sam Manzer, 
        Ilya Kaliman.
   * libcc-2.5-trunk
     by Evgeny Epifanovsky, Arik Landau, Tomasz Kus, Kirill Khistyaev, 
        Dmitry Zuev, Prashant Manohar, Xintian Feng, Anna Krylov, 
        Matthew Goldey, Alec White, Thomas Jagau, Kaushik Nanda, 
        Anastasia Gunina, Alexander Kunitsa, Joonho Lee.

   CCMAN original authors:
   Anna I. Krylov, C. David Sherrill, Steven R. Gwaltney,
   Edward F. C. Byrd (2000)
   Sergey V. Levchenko, Lyudmila V. Slipchenko, Tao Wang,
   Ana-Maria C. Cristian (2003)
   Piotr A. Pieniazek, C. Melania Oana, Evgeny Epifanovsky (2007)
   Prashant Manohar (2009)

 ------------------------------------------------------------------------------


 Allocating and initializing 239808MB of RAM (this may take a while)...
 Calculation will run on 12 cores.

 
 Alpha MOs, Restricted
 -- Occupied --                  
-20.559 -20.554 -15.650 -15.634 -11.428 -11.390 -11.346 -11.261
  1 A'    2 A'    3 A'    4 A'    5 A'    6 A'    7 A'    8 A'                 
 -1.444  -1.410  -1.316  -1.248  -1.091  -0.934  -0.902  -0.808
  9 A'   10 A'   11 A'   12 A'   13 A'   14 A'   15 A'   16 A'                 
 -0.767  -0.715  -0.681  -0.668  -0.656  -0.619  -0.602  -0.573
 17 A'   18 A'   19 A'    1 A"   20 A'   21 A'   22 A'    2 A"                 
 -0.526  -0.485  -0.450  -0.437  -0.368
  3 A"   23 A'   24 A'    4 A"    5 A"                                         
 -- Virtual --                   
  0.019   0.041   0.049   0.060   0.071   0.084   0.097   0.101
 25 A'   26 A'   27 A'   28 A'    6 A"    7 A"   29 A'   30 A'                 
  0.116   0.121   0.127   0.131   0.138   0.148   0.150   0.154
 31 A'    8 A"   32 A'    9 A"   33 A'   34 A'   35 A'   10 A"                 
  0.168   0.173   0.177   0.188   0.195   0.202   0.209   0.252
 36 A'   37 A'   11 A"   38 A'   39 A'   40 A'   12 A"   41 A'                 
  0.253   0.261   0.268   0.280   0.292   0.305   0.317   0.319
 13 A"   14 A"   42 A'   43 A'   44 A'   45 A'   46 A'   15 A"                 
  0.323   0.330   0.338   0.346   0.348   0.365   0.366   0.375
 47 A'   48 A'   49 A'   16 A"   50 A'   17 A"   51 A'   52 A'                 
  0.379   0.399   0.412   0.418   0.441   0.442   0.445   0.475
 53 A'   54 A'   55 A'   56 A'   57 A'   18 A"   58 A'   19 A"                 
  0.481   0.494   0.502   0.513   0.517   0.550   0.558   0.566
 59 A'   20 A"   60 A'   21 A"   61 A'   62 A'   63 A'   64 A'                 
  0.574   0.591   0.613   0.625   0.631   0.634   0.644   0.648
 65 A'   22 A"   66 A'   67 A'   68 A'   23 A"   69 A'   24 A"                 
  0.676   0.693   0.699   0.703   0.719   0.735   0.763   0.766
 70 A'   71 A'   72 A'   25 A"   26 A"   73 A'   74 A'   75 A'                 
  0.787   0.802   0.809   0.819   0.832   0.833   0.854   0.856
 27 A"   76 A'   77 A'   78 A'   79 A'   80 A'   28 A"   81 A'                 
  0.867   0.889   0.917   0.939   0.942   0.966   0.968   0.977
 29 A"   82 A'   30 A"   31 A"   83 A'   84 A'   32 A"   85 A'                 
  0.988   0.999   1.029   1.053   1.060   1.080   1.094   1.118
 86 A'   87 A'   88 A'   33 A"   89 A'   90 A'   34 A"   35 A"                 
  1.135   1.163   1.165   1.217   1.221   1.238   1.276   1.284
 91 A'   92 A'   36 A"   37 A"   93 A'   94 A'   38 A"   39 A"                 
  1.308   1.344   1.350   1.353   1.384   1.440   1.467   1.485
 95 A'   96 A'   40 A"   97 A'   98 A'   99 A'  100 A'  101 A'                 
  1.510   1.528   1.543   1.543   1.561   1.595   1.638   1.639
102 A'  103 A'   41 A"  104 A'   42 A"  105 A'   43 A"  106 A'                 
  1.657   1.669   1.702   1.756   1.783   1.819   1.828   1.848
 44 A"  107 A'  108 A'   45 A"  109 A'   46 A"   47 A"  110 A'                 
  1.863   1.906   1.933   1.959   1.977   1.980   1.995   1.999
111 A'   48 A"   49 A"  112 A'  113 A'  114 A'   50 A"  115 A'                 
  2.012   2.048   2.092   2.103   2.150   2.200   2.217   2.224
 51 A"  116 A'  117 A'   52 A"  118 A'  119 A'   53 A"  120 A'                 
  2.238   2.263   2.320   2.331   2.350   2.368   2.410   2.441
 54 A"  121 A'   55 A"  122 A'  123 A'  124 A'  125 A'   56 A"                 
  2.450   2.478   2.510   2.543   2.573   2.620   2.692   2.721
126 A'  127 A'  128 A'  129 A'  130 A'  131 A'  132 A'   57 A"                 
  2.732   2.780   2.783   2.822   2.841   2.856   2.873   2.895
133 A'   58 A"  134 A'   59 A"  135 A'  136 A'   60 A"  137 A'                 
  2.991   3.004   3.088   3.144   3.167   3.225   3.324   3.356
138 A'  139 A'  140 A'  141 A'  142 A'  143 A'  144 A'  145 A'                 
  3.448   3.534   3.578   3.725   3.743   3.757   3.794   3.816
146 A'  147 A'  148 A'   61 A"  149 A'   62 A"   63 A"   64 A"                 
  3.816   3.819   4.030   4.052   4.077   4.160   4.298
150 A'  151 A'  152 A'  153 A'  154 A'  155 A'  156 A'                         
 
 Beta MOs, Restricted
 -- Occupied --                  
-20.559 -20.554 -15.650 -15.634 -11.428 -11.390 -11.346 -11.261
  1 A'    2 A'    3 A'    4 A'    5 A'    6 A'    7 A'    8 A'                 
 -1.444  -1.410  -1.316  -1.248  -1.091  -0.934  -0.902  -0.808
  9 A'   10 A'   11 A'   12 A'   13 A'   14 A'   15 A'   16 A'                 
 -0.767  -0.715  -0.681  -0.668  -0.656  -0.619  -0.602  -0.573
 17 A'   18 A'   19 A'    1 A"   20 A'   21 A'   22 A'    2 A"                 
 -0.526  -0.485  -0.450  -0.437  -0.368
  3 A"   23 A'   24 A'    4 A"    5 A"                                         
 -- Virtual --                   
  0.019   0.041   0.049   0.060   0.071   0.084   0.097   0.101
 25 A'   26 A'   27 A'   28 A'    6 A"    7 A"   29 A'   30 A'                 
  0.116   0.121   0.127   0.131   0.138   0.148   0.150   0.154
 31 A'    8 A"   32 A'    9 A"   33 A'   34 A'   35 A'   10 A"                 
  0.168   0.173   0.177   0.188   0.195   0.202   0.209   0.252
 36 A'   37 A'   11 A"   38 A'   39 A'   40 A'   12 A"   41 A'                 
  0.253   0.261   0.268   0.280   0.292   0.305   0.317   0.319
 13 A"   14 A"   42 A'   43 A'   44 A'   45 A'   46 A'   15 A"                 
  0.323   0.330   0.338   0.346   0.348   0.365   0.366   0.375
 47 A'   48 A'   49 A'   16 A"   50 A'   17 A"   51 A'   52 A'                 
  0.379   0.399   0.412   0.418   0.441   0.442   0.445   0.475
 53 A'   54 A'   55 A'   56 A'   57 A'   18 A"   58 A'   19 A"                 
  0.481   0.494   0.502   0.513   0.517   0.550   0.558   0.566
 59 A'   20 A"   60 A'   21 A"   61 A'   62 A'   63 A'   64 A'                 
  0.574   0.591   0.613   0.625   0.631   0.634   0.644   0.648
 65 A'   22 A"   66 A'   67 A'   68 A'   23 A"   69 A'   24 A"                 
  0.676   0.693   0.699   0.703   0.719   0.735   0.763   0.766
 70 A'   71 A'   72 A'   25 A"   26 A"   73 A'   74 A'   75 A'                 
  0.787   0.802   0.809   0.819   0.832   0.833   0.854   0.856
 27 A"   76 A'   77 A'   78 A'   79 A'   80 A'   28 A"   81 A'                 
  0.867   0.889   0.917   0.939   0.942   0.966   0.968   0.977
 29 A"   82 A'   30 A"   31 A"   83 A'   84 A'   32 A"   85 A'                 
  0.988   0.999   1.029   1.053   1.060   1.080   1.094   1.118
 86 A'   87 A'   88 A'   33 A"   89 A'   90 A'   34 A"   35 A"                 
  1.135   1.163   1.165   1.217   1.221   1.238   1.276   1.284
 91 A'   92 A'   36 A"   37 A"   93 A'   94 A'   38 A"   39 A"                 
  1.308   1.344   1.350   1.353   1.384   1.440   1.467   1.485
 95 A'   96 A'   40 A"   97 A'   98 A'   99 A'  100 A'  101 A'                 
  1.510   1.528   1.543   1.543   1.561   1.595   1.638   1.639
102 A'  103 A'   41 A"  104 A'   42 A"  105 A'   43 A"  106 A'                 
  1.657   1.669   1.702   1.756   1.783   1.819   1.828   1.848
 44 A"  107 A'  108 A'   45 A"  109 A'   46 A"   47 A"  110 A'                 
  1.863   1.906   1.933   1.959   1.977   1.980   1.995   1.999
111 A'   48 A"   49 A"  112 A'  113 A'  114 A'   50 A"  115 A'                 
  2.012   2.048   2.092   2.103   2.150   2.200   2.217   2.224
 51 A"  116 A'  117 A'   52 A"  118 A'  119 A'   53 A"  120 A'                 
  2.238   2.263   2.320   2.331   2.350   2.368   2.410   2.441
 54 A"  121 A'   55 A"  122 A'  123 A'  124 A'  125 A'   56 A"                 
  2.450   2.478   2.510   2.543   2.573   2.620   2.692   2.721
126 A'  127 A'  128 A'  129 A'  130 A'  131 A'  132 A'   57 A"                 
  2.732   2.780   2.783   2.822   2.841   2.856   2.873   2.895
133 A'   58 A"  134 A'   59 A"  135 A'  136 A'   60 A"  137 A'                 
  2.991   3.004   3.088   3.144   3.167   3.225   3.324   3.356
138 A'  139 A'  140 A'  141 A'  142 A'  143 A'  144 A'  145 A'                 
  3.448   3.534   3.578   3.725   3.743   3.757   3.794   3.816
146 A'  147 A'  148 A'   61 A"  149 A'   62 A"   63 A"   64 A"                 
  3.816   3.819   4.030   4.052   4.077   4.160   4.298
150 A'  151 A'  152 A'  153 A'  154 A'  155 A'  156 A'                         

 Occupation and symmetry of molecular orbitals

 Point group: Cs (2 irreducible representations).

                           A'   A"    All 
 ------------------------------------------
 All molecular orbitals:
  - Alpha                  156  64    220 
  - Beta                   156  64    220 
 ------------------------------------------
 Alpha orbitals:
  - Frozen occupied        8    0     8   
  - Active occupied        16   5     21  
  - Active virtual         132  59    191 
  - Frozen virtual         0    0     0   
 ------------------------------------------
 Beta orbitals:
  - Frozen occupied        8    0     8   
  - Active occupied        16   5     21  
  - Active virtual         132  59    191 
  - Frozen virtual         0    0     0   
 ------------------------------------------

 Import integrals:   CPU 0.00 s  wall 0.00 s

 Import integrals:   CPU 191.83 s  wall 17.92 s

 MP2 amplitudes:   CPU 0.91 s  wall 0.60 s

Running a double precision version
           CCSD T amplitudes will be solved using DIIS.

           Start     Size      MaxIter   EConv     TConv     
           3         7         100       1.00e-06  1.00e-04  
 ------------------------------------------------------------------------------
           Energy (a.u.)   Ediff      Tdiff       Comment
 ------------------------------------------------------------------------------
          -413.77681550                           
     1    -413.75808628   1.87e-02   1.03e+00     
     2    -413.79792605   3.98e-02   1.36e-01     
     3    -413.79536727   2.56e-03   5.51e-02     
     4    -413.79958202   4.21e-03   2.22e-02     Switched to DIIS steps.
     5    -413.80109511   1.51e-03   1.31e-02     
     6    -413.80122989   1.35e-04   3.09e-03     
     7    -413.80123369   3.81e-06   1.35e-03     
     8    -413.80122956   4.14e-06   3.97e-04     
     9    -413.80123119   1.63e-06   1.66e-04     
    10    -413.80123141   2.19e-07   4.91e-05     
 ------------------------------------------------------------------------------
          -413.80123141                           CCSD T converged.

End of double precision
 SCF energy                 = -412.53132083
 MP2 energy                 = -413.77681550
 CCSD correlation energy    =   -1.26991058
 CCSD total energy          = -413.80123141

 CCSD  T1^2 = 0.0252  T2^2 = 0.4235  Leading amplitudes:

 Amplitude    Orbitals with energies
 -0.0300       2 (A") A                  ->    10 (A") A                  
              -0.5732                          0.1535                     
 -0.0300       2 (A") B                  ->    10 (A") B                  
              -0.5732                          0.1535                     
  0.0271       3 (A") A                  ->    7 (A") A                   
              -0.5264                          0.0841                     
  0.0271       3 (A") B                  ->    7 (A") B                   
              -0.5264                          0.0841                     

 Amplitude    Orbitals with energies
 -0.0338       5 (A") A      5 (A") B    ->    7 (A") A      7 (A") B     
              -0.3685       -0.3685            0.0841        0.0841       
  0.0338       5 (A") A      5 (A") B    ->    7 (A") B      7 (A") A     
              -0.3685       -0.3685            0.0841        0.0841       
  0.0338       5 (A") B      5 (A") A    ->    7 (A") A      7 (A") B     
              -0.3685       -0.3685            0.0841        0.0841       
 -0.0338       5 (A") B      5 (A") A    ->    7 (A") B      7 (A") A     
              -0.3685       -0.3685            0.0841        0.0841       

 Computing CCSD intermediates for later calculations in double precision
 Finished.

Running a double precision version
           CCSD Lambda amplitudes will be solved using DIIS.
           Start     Size      MaxIter   EConv     LConv     
           3         7         100       1.00e-06  1.00e-04  
 ------------------------------------------------------------------------------
            Enorm      Ldiff       Comment
 ------------------------------------------------------------------------------
     1     7.36e-02   4.37e-02     
     2     2.65e-02   8.91e-03     
     3     1.16e-02   5.16e-04     
     4     4.93e-03   1.60e-03     Switched to DIIS steps.
     5     1.44e-03   8.94e-04     
     6     6.17e-04   2.01e-04     
     7     2.23e-04   4.31e-05     
     8     9.15e-05   8.79e-06     
     9     3.94e-05   3.30e-06     
    10     1.90e-05   1.66e-06     
    11     8.37e-06   1.89e-07     
    12     3.42e-06   1.66e-07     
    13     1.37e-06   3.57e-08     
    14     5.80e-07   1.60e-08     
 ------------------------------------------------------------------------------
                                   CCSD Lambda converged.

 Computing density matrices in double precision...
           Orbital response amplitudes will be solved using DIIS.
           Start     Size      MaxIter   EConv     LConv     
           3         7         100       1.00e-06  1.00e-06  
 ------------------------------------------------------------------------------
            Enorm      Ldiff       Comment
 ------------------------------------------------------------------------------
     1     1.01e-01   2.62e-02     
     2     1.02e-01   2.23e-02     
     3     1.25e-01   4.44e-02     
     4     5.70e-03   5.92e-02     Switched to DIIS steps.
     5     1.14e-03   3.96e-04     
     6     6.81e-04   2.47e-04     
     7     2.12e-04   3.13e-05     
     8     8.26e-05   1.49e-05     
     9     2.46e-05   6.53e-06     
    10     7.76e-06   7.86e-07     
    11     2.60e-06   1.98e-07     
    12     1.14e-06   1.12e-07     
    13     3.85e-07   2.44e-08     
 ------------------------------------------------------------------------------
                                   Orbital response converged.

 Computing density matrices... Done.
 Reference state properties
 Relaxed dipole moment (a.u.): 1.699670 (X 0.450506, Y -1.638879, Z 0.000000)
 Relaxed R-squared (a.u.): 830.527285 (XX 505.572899, YY 289.871758, ZZ 35.082628)
 Gauge origin (a.u.): (0.000000, 0.000000, 0.000000)
 Relaxed angular momentum (a.u.) against gauge origin: 
 (X 0.000000i, Y 0.000000i, Z 0.000000i)
 Traces of the OPDMs: AA 29.000000, BB 29.000000
 Relaxed density matrix was written to a file for further analysis.
           CCSD Polarizability response will be solved using DIIS.
           Start     Size      MaxIter   EConv     XConv     
           3         7         100       1.00e-06  1.00e-06  
Performing DIIS for the x-component of dTdy
 ------------------------------------------------------------------------------
            Enorm      Xdiff       Comment
 ------------------------------------------------------------------------------
     1     1.99e+00   1.71e+00     
     2     1.46e+00   1.38e+00     
     3     8.75e-01   7.85e-01     
     4     3.44e-01   1.27e+00     Switched to DIIS steps.
     5     1.43e-01   3.37e-01     
     6     3.54e-02   1.65e-01     
     7     1.84e-02   1.19e-02     
     8     6.81e-03   6.49e-03     
     9     2.71e-03   1.49e-03     
    10     1.15e-03   1.38e-04     
    11     5.57e-04   1.21e-04     
    12     1.57e-04   3.96e-05     
    13     6.49e-05   6.61e-06     
    14     3.19e-05   6.77e-06     
    15     1.56e-05   8.41e-06     
    16     7.60e-06   8.91e-06     
    17     3.56e-06   5.26e-06     
    18     1.22e-06   3.31e-06     
    19     5.75e-07   9.17e-07     
 ------------------------------------------------------------------------------
                                   Polarizability X-amplitude response conv
Performing DIIS for the y-component of dTdy
 ------------------------------------------------------------------------------
            Enorm      Xdiff       Comment
 ------------------------------------------------------------------------------
     1     1.66e+00   1.44e+00     
     2     1.10e+00   1.03e+00     
     3     6.15e-01   5.48e-01     
     4     2.11e-01   7.66e-01     Switched to DIIS steps.
     5     9.12e-02   1.42e-01     
     6     2.42e-02   7.53e-02     
     7     1.19e-02   7.05e-03     
     8     4.18e-03   3.23e-03     
     9     1.53e-03   6.30e-04     
    10     6.93e-04   9.05e-05     
    11     3.83e-04   3.85e-05     
    12     1.48e-04   2.58e-06     
    13     6.20e-05   3.33e-06     
    14     2.58e-05   3.54e-06     
    15     1.12e-05   3.75e-06     
    16     5.15e-06   4.17e-06     
    17     2.50e-06   2.44e-06     
    18     9.19e-07   1.78e-06     
    19     4.30e-07   6.01e-07     
 ------------------------------------------------------------------------------
                                   Polarizability X-amplitude response conv
Performing DIIS for the z-component of dTdy
 ------------------------------------------------------------------------------
            Enorm      Xdiff       Comment
 ------------------------------------------------------------------------------
     1     1.04e+00   8.57e-01     
     2     5.67e-01   5.10e-01     
     3     2.94e-01   2.50e-01     
     4     5.16e-02   2.76e-01     Switched to DIIS steps.
     5     2.42e-02   1.98e-02     
     6     7.19e-03   7.62e-03     
     7     3.54e-03   1.06e-03     
     8     1.04e-03   3.99e-04     
     9     4.45e-04   1.15e-04     
    10     1.85e-04   2.20e-05     
    11     8.92e-05   1.07e-06     
    12     3.05e-05   1.90e-06     
    13     1.40e-05   1.03e-06     
    14     6.31e-06   2.60e-07     
    15     3.56e-06   1.50e-07     
    16     2.09e-06   1.62e-07     
    17     1.01e-06   7.20e-08     
    18     4.33e-07   9.13e-09     
 ------------------------------------------------------------------------------
                                   Polarizability X-amplitude response conv

           CCSD Polarizability response will be solved using DIIS.
           Start     Size      MaxIter   EConv     XConv     
           3         7         100       1.00e-06  1.00e-06  
Performing DIIS for the x-component of dZdy
 ------------------------------------------------------------------------------
            Enorm      Xdiff       Comment
 ------------------------------------------------------------------------------
     1     1.74e+00   1.53e+00     
     2     1.21e+00   1.13e+00     
     3     7.44e-01   6.72e-01     
     4     2.52e-01   1.14e+00     Switched to DIIS steps.
     5     1.19e-01   2.05e-01     
     6     2.91e-02   1.38e-01     
     7     1.43e-02   1.42e-02     
     8     5.64e-03   4.11e-03     
     9     2.15e-03   9.44e-04     
    10     9.42e-04   3.21e-04     
    11     4.42e-04   6.68e-05     
    12     1.33e-04   3.72e-05     
    13     5.26e-05   3.25e-05     
    14     2.28e-05   6.59e-06     
    15     1.11e-05   3.97e-06     
    16     5.17e-06   1.21e-06     
    17     2.36e-06   1.37e-06     
    18     8.68e-07   1.28e-06     
    19     3.95e-07   4.61e-07     
 ------------------------------------------------------------------------------
                                   Polarizability X-amplitude response conv
Performing DIIS for the y-component of dZdy
 ------------------------------------------------------------------------------
            Enorm      Xdiff       Comment
 ------------------------------------------------------------------------------
     1     1.48e+00   1.29e+00     
     2     9.34e-01   8.71e-01     
     3     5.36e-01   4.78e-01     
     4     1.64e-01   6.84e-01     Switched to DIIS steps.
     5     7.71e-02   9.38e-02     
     6     2.04e-02   6.37e-02     
     7     9.68e-03   7.90e-03     
     8     3.49e-03   2.32e-03     
     9     1.22e-03   4.44e-04     
    10     5.56e-04   1.47e-04     
    11     2.97e-04   2.94e-05     
    12     1.22e-04   2.41e-05     
    13     5.12e-05   1.57e-05     
    14     2.07e-05   2.76e-06     
    15     8.97e-06   8.65e-07     
    16     3.84e-06   2.14e-06     
    17     1.75e-06   1.44e-06     
    18     6.27e-07   1.11e-06     
    19     2.79e-07   3.73e-07     
 ------------------------------------------------------------------------------
                                   Polarizability X-amplitude response conv
Performing DIIS for the z-component of dZdy
 ------------------------------------------------------------------------------
            Enorm      Xdiff       Comment
 ------------------------------------------------------------------------------
     1     9.57e-01   7.77e-01     
     2     5.15e-01   4.64e-01     
     3     2.70e-01   2.32e-01     
     4     4.58e-02   2.62e-01     Switched to DIIS steps.
     5     2.23e-02   1.50e-02     
     6     6.60e-03   8.42e-03     
     7     3.24e-03   1.39e-03     
     8     1.02e-03   3.21e-04     
     9     4.35e-04   9.06e-05     
    10     2.00e-04   3.74e-05     
    11     9.78e-05   6.69e-06     
    12     4.32e-05   1.52e-06     
    13     2.03e-05   7.24e-06     
    14     1.16e-05   2.43e-06     
    15     5.69e-06   5.44e-07     
    16     2.85e-06   5.10e-07     
    17     1.07e-06   4.11e-07     
    18     4.09e-07   1.72e-07     
 ------------------------------------------------------------------------------
                                   Polarizability X-amplitude response conv

Static polarizability with asymmetric derivative approach

 Polarizability Tensor ALPHA_IJ, I,J=X,Y,Z (a.u.):
 ------------------------------------------------------------------------------
         95.81785238   -2.24717718   -0.00000000
         -2.24717745   74.61880611   -0.00000000
         -0.00000000   -0.00000000   41.58585904
 ------------------------------------------------------------------------------
 Isotropic polarizability: 1/3 * (a_xx + a_yy + a_zz)
 Isotropic polarizability in a.u. = 70.67417251
 Anisotropic polarizability: SQRT(0.5*((a_xx-a_yy)^2 + (a_yy-a_zz)^2 + (a_zz-a_xx)^2))
 Anisotropic polarizability in a.u. = 47.33753403
 ------------------------------------------------------------------------------

 CCSD calculation:   CPU 7523.87 s  wall 733.41 s

        Solving for EOMEE-CCSD A' singlet states.

Running a double precision version
        EOMEE-CCSD/MP2 right amplitudes will be solved using Davidson.
        Amplitudes will be solved using standard  algorithm.
     Hard-coded thresholds: 
     LinDepThresh=1.00e-15  NormThresh=1.00e-06  ReorthogonThresh=1.00e-02

      Roots     MaxVec    MaxIter   Precond   Conv      Shift    
      2         120       60        1         1.00e-05  0.00e+00  
 ------------------------------------------------------------------------------
      Iter ConvRoots NVecs ResNorm Current eigenvalues (eV)
 ------------------------------------------------------------------------------
      0    0      2     2.20e-01   10.3525   12.5108   
      1    0      4     6.59e-02   7.8424   8.8708   
      2    0      6     1.08e-02   6.7782   7.7204   
      3    0      8     6.07e-03   6.3352   7.5338   
      4    0      10    5.92e-03   5.9206   7.4246   
      5    0      12    2.09e-03   5.6896   7.3244   
      6    0      14    9.64e-04   5.6057   7.2775   
      7    0      16    6.35e-04   5.5874   7.2424   
Found complex roots...
      8    0      18    4.56e-04   5.5844   7.1935   
      9    0      20    1.80e-04   5.5827   7.1658   
      10   1      22    1.12e-04   5.5820*  7.1557   
      11   1      23    1.44e-04   5.5820*  7.1444   
      12   1      24    2.58e-04   5.5820*  7.1277   
      13   1      25    4.64e-04   5.5820*  7.0981   
      14   1      26    1.68e-03   5.5820*  7.0147   
      15   1      27    1.16e-03   5.5820*  6.8834   
      16   1      28    5.93e-04   5.5820*  6.8084   
      17   1      29    2.90e-04   5.5820*  6.7741   
      18   1      30    1.69e-04   5.5820*  6.7553   
      19   1      31    9.64e-05   5.5820*  6.7442   
      20   1      32    5.56e-05   5.5820*  6.7386   
      21   1      33    4.64e-05   5.5820*  6.7344   
      22   1      34    4.56e-05   5.5820*  6.7306   
      23   1      35    3.77e-05   5.5820*  6.7273   
      24   1      36    3.25e-05   5.5819*  6.7244   
      25   1      37    2.43e-05   5.5819*  6.7223   
      26   1      38    1.55e-05   5.5819*  6.7209   
      27   1      39    1.20e-05   5.5819*  6.7201   
      28   2      40    8.36e-06   5.5819*  6.7195*  

     Davidson procedure converged

 EOMEE transition 1/A'
 Total energy = -413.59610048 a.u.  Excitation energy = 5.5819 eV.
 R0^2 = 0.0001  R1^2 = 0.9096  R2^2 = 0.0904  Res^2 = 7.36e-06
 Conv-d = yes

 Amplitude    Transitions between orbitals
 -0.4693       5 (A") A                  ->    7 (A") A                   
 -0.4693       5 (A") B                  ->    7 (A") B                   
  0.3713       5 (A") A                  ->    6 (A") A                   
  0.3713       5 (A") B                  ->    6 (A") B                   
  0.1479       5 (A") A                  ->    9 (A") A                   
  0.1479       5 (A") B                  ->    9 (A") B                   
 -0.1475       5 (A") A                  ->    8 (A") A                   
 -0.1475       5 (A") B                  ->    8 (A") B                   

              Summary of significant orbitals:

               Number  Type             Irrep      Energy
               29      Occ  Alpha       5 (A")     -0.3685
               29      Occ  Beta        5 (A")     -0.3685
               34      Vir  Alpha       6 (A")      0.0706
               35      Vir  Alpha       7 (A")      0.0841
               39      Vir  Alpha       8 (A")      0.1210
               41      Vir  Alpha       9 (A")      0.1308
               34      Vir  Beta        6 (A")      0.0706
               35      Vir  Beta        7 (A")      0.0841
               39      Vir  Beta        8 (A")      0.1210
               41      Vir  Beta        9 (A")      0.1308


 EOMEE transition 2/A'
 Total energy = -413.55429516 a.u.  Excitation energy = 6.7195 eV.
 R0^2 = 0.0001  R1^2 = 0.8878  R2^2 = 0.1122  Res^2 = 9.35e-06
 Conv-d = yes

 Amplitude    Transitions between orbitals
  0.4142       4 (A") A                  ->    7 (A") A                   
  0.4142       4 (A") B                  ->    7 (A") B                   
 -0.3957       4 (A") A                  ->    6 (A") A                   
 -0.3957       4 (A") B                  ->    6 (A") B                   
 -0.2036       4 (A") A                  ->    9 (A") A                   
 -0.2036       4 (A") B                  ->    9 (A") B                   
  0.1361       4 (A") A                  ->    8 (A") A                   
  0.1361       4 (A") B                  ->    8 (A") B                   

              Summary of significant orbitals:

               Number  Type             Irrep      Energy
               28      Occ  Alpha       4 (A")     -0.4374
               28      Occ  Beta        4 (A")     -0.4374
               34      Vir  Alpha       6 (A")      0.0706
               35      Vir  Alpha       7 (A")      0.0841
               39      Vir  Alpha       8 (A")      0.1210
               41      Vir  Alpha       9 (A")      0.1308
               34      Vir  Beta        6 (A")      0.0706
               35      Vir  Beta        7 (A")      0.0841
               39      Vir  Beta        8 (A")      0.1210
               41      Vir  Beta        9 (A")      0.1308


Running a double precision version
      EOM-CCSD/MP2 left amplitudes will be solved using Davidson.
        Amplitudes will be solved using MOM  algorithm.
     Hard-coded thresholds: 
     LinDepThresh=1.00e-15  NormThresh=1.00e-06  ReorthogonThresh=1.00e-02

      Roots     MaxVec    MaxIter   Precond   Conv      Shift    
      2         120       60        1         1.00e-05  0.00e+00  
 ------------------------------------------------------------------------------
      Iter ConvRoots NVecs ResNorm Current eigenvalues (eV)
 ------------------------------------------------------------------------------
      0    0      2     1.23e-02   5.5819   6.7195   
      1    0      4     2.68e-03   5.5819   6.7194   
      2    0      6     1.53e-04   5.5820   6.7193   
      3    0      8     2.39e-05   5.5819   6.7192   
      4    2      10    8.21e-06   5.5819*  6.7192*  

     Davidson procedure converged

Running a double precision version
           EOM amplitude response will be solved using DIIS.
           Start     Size      MaxIter   EConv     ZConv     
           3         7         100       1.00e-06  1.00e-06  
 ------------------------------------------------------------------------------
            Enorm      Zdiff       Comment
 ------------------------------------------------------------------------------
     1     9.32e-02   4.44e-02     
     2     3.31e-02   1.91e-02     
     3     1.76e-02   7.31e-03     
     4     6.93e-03   5.65e-03     Switched to DIIS steps.
     5     3.23e-03   2.18e-03     
     6     1.33e-03   7.62e-04     
     7     6.23e-04   2.06e-04     
     8     2.46e-04   5.93e-05     
     9     7.82e-05   1.97e-05     
    10     3.53e-05   4.85e-06     
    11     1.37e-05   4.38e-08     
    12     5.45e-06   2.64e-07     
    13     2.17e-06   1.69e-07     
    14     1.11e-06   3.44e-08     
    15     4.54e-07   3.18e-08     
 ------------------------------------------------------------------------------
                                   Amplitude response converged.

           Orbital response amplitudes will be solved using DIIS.
           Start     Size      MaxIter   EConv     LConv     
           3         7         100       1.00e-06  1.00e-06  
 ------------------------------------------------------------------------------
            Enorm      Ldiff       Comment
 ------------------------------------------------------------------------------
     1     1.42e-01   3.72e-02     
     2     1.26e-01   3.04e-02     
     3     1.44e-01   4.95e-02     
     4     1.20e-02   5.44e-02     Switched to DIIS steps.
     5     3.61e-03   4.60e-04     
     6     1.76e-03   9.16e-04     
     7     4.89e-04   5.65e-04     
     8     1.12e-04   3.48e-06     
     9     3.22e-05   2.03e-05     
    10     1.56e-05   1.18e-06     
    11     5.82e-06   1.23e-09     
    12     2.73e-06   8.60e-07     
    13     9.72e-07   1.55e-08     
 ------------------------------------------------------------------------------
                                   Orbital response converged.

Running a double precision version
           EOM amplitude response will be solved using DIIS.
           Start     Size      MaxIter   EConv     ZConv     
           3         7         100       1.00e-06  1.00e-06  
 ------------------------------------------------------------------------------
            Enorm      Zdiff       Comment
 ------------------------------------------------------------------------------
     1     9.20e-02   4.59e-02     
     2     3.31e-02   1.91e-02     
     3     1.74e-02   7.37e-03     
     4     6.52e-03   5.97e-03     Switched to DIIS steps.
     5     2.97e-03   1.93e-03     
     6     1.09e-03   7.13e-04     
     7     4.47e-04   1.77e-04     
     8     1.75e-04   2.04e-05     
     9     5.93e-05   1.58e-05     
    10     2.58e-05   2.82e-06     
    11     1.21e-05   3.12e-08     
    12     5.11e-06   3.86e-07     
    13     2.36e-06   1.01e-07     
    14     1.07e-06   1.03e-07     
    15     4.55e-07   2.75e-08     
 ------------------------------------------------------------------------------
                                   Amplitude response converged.

           Orbital response amplitudes will be solved using DIIS.
           Start     Size      MaxIter   EConv     LConv     
           3         7         100       1.00e-06  1.00e-06  
 ------------------------------------------------------------------------------
            Enorm      Ldiff       Comment
 ------------------------------------------------------------------------------
     1     2.19e-01   7.69e-02     
     2     1.93e-01   8.79e-02     
     3     2.06e-01   9.78e-02     
     4     1.95e-02   9.36e-02     Switched to DIIS steps.
     5     1.96e-03   6.11e-04     
     6     7.89e-04   1.72e-04     
     7     2.80e-04   2.05e-05     
     8     1.15e-04   1.60e-05     
     9     3.70e-05   6.73e-06     
    10     1.68e-05   4.04e-06     
    11     4.25e-06   1.19e-06     
    12     1.58e-06   1.32e-06     
    13     5.83e-07   7.47e-08     
 ------------------------------------------------------------------------------
                                   Orbital response converged.

 Excited state properties for  EOMEE-CCSD transition 1/A'
 Relaxed dipole moment (a.u.): 2.203890 (X 1.254186, Y -1.812222, Z 0.000000)
 Relaxed R-squared (a.u.): 832.031364 (XX 505.119688, YY 291.113568, ZZ 35.798108)
 Gauge origin (a.u.): (0.000000, 0.000000, 0.000000)
 Relaxed angular momentum (a.u.) against gauge origin: 
 (X 0.000000i, Y 0.000000i, Z 0.000000i)
 Traces of the OPDMs: AA 29.000000, BB 29.000000

           EOM Polarizability response will be solved using DIIS.
           Start     Size      MaxIter   EConv     XConv     
           3         7         100       1.00e-06  1.00e-06  
Performing DIIS for the x-component of dRdy
 ------------------------------------------------------------------------------
            Enorm      Xdiff       Comment
 ------------------------------------------------------------------------------
     1     1.74e+00   1.58e+00     
     2     1.80e+00   1.72e+00     
     3     1.50e+00   1.38e+00     
     4     1.75e+00   3.23e+00     Switched to DIIS steps.
     5     1.55e+00   1.82e+00     
     6     1.00e+00   3.01e+00     
     7     8.35e-01   2.46e+00     
     8     5.00e-01   2.52e+00     
     9     3.10e-01   1.68e+00     
    10     1.94e-01   1.50e+00     
    11     1.53e-01   4.73e-01     
    12     9.10e-02   4.94e-01     
    13     5.92e-02   4.71e-02     
    14     4.43e-02   1.63e-01     
    15     2.86e-02   3.65e-02     
    16     1.88e-02   3.41e-02     
    17     1.20e-02   3.98e-02     
    18     9.24e-03   3.52e-02     
    19     7.47e-03   1.81e-02     
    20     6.64e-03   1.20e-03     
    21     6.72e-03   1.38e-02     
    22     5.63e-03   5.62e-03     
    23     4.59e-03   9.85e-03     
    24     2.84e-03   3.84e-04     
    25     1.67e-03   1.26e-03     
    26     1.81e-03   4.58e-03     
    27     1.71e-03   5.12e-04     
    28     1.64e-03   7.72e-04     
    29     1.50e-03   9.21e-04     
    30     1.29e-03   4.79e-05     
    31     1.23e-03   3.82e-04     
    32     1.26e-03   1.79e-05     
    33     1.14e-03   5.99e-05     
    34     8.22e-04   2.42e-03     
    35     5.27e-04   2.68e-03     
    36     4.96e-04   4.12e-04     
    37     5.11e-04   4.73e-04     
    38     5.10e-04   1.21e-04     
    39     4.93e-04   4.37e-04     
    40     4.59e-04   2.66e-04     
    41     3.81e-04   1.56e-04     
    42     2.95e-04   5.50e-04     
    43     2.49e-04   4.66e-04     
    44     2.15e-04   4.85e-04     
    45     1.67e-04   5.58e-04     
    46     1.72e-04   2.47e-04     
    47     1.69e-04   9.41e-06     
    48     1.66e-04   1.39e-05     
    49     1.65e-04   1.39e-05     
    50     1.52e-04   1.55e-04     
    51     1.54e-04   2.32e-05     
    52     1.56e-04   3.81e-05     
    53     1.42e-04   1.29e-04     
    54     1.45e-04   4.70e-05     
    55     1.46e-04   3.61e-06     
    56     1.47e-04   1.02e-04     
    57     1.31e-04   6.07e-05     
    58     1.18e-04   7.52e-05     
    59     5.10e-05   9.64e-05     
    60     3.63e-05   4.03e-05     
    61     3.52e-05   2.64e-05     
    62     3.59e-05   2.93e-06     
    63     3.32e-05   4.52e-06     
    64     2.53e-05   1.58e-07     
    65     2.31e-05   1.07e-05     
    66     2.42e-05   5.30e-06     
    67     2.19e-05   3.28e-06     
    68     1.83e-05   7.49e-06     
    69     1.56e-05   4.90e-06     
    70     1.24e-05   1.11e-05     
    71     1.03e-05   1.12e-05     
    72     1.11e-05   5.01e-07     
    73     1.06e-05   6.66e-06     
    74     1.11e-05   3.81e-06     
    75     1.12e-05   1.14e-06     
    76     1.08e-05   2.01e-06     
    77     1.04e-05   2.31e-06     
    78     1.01e-05   9.98e-06     
    79     1.06e-05   2.36e-06     
    80     9.17e-06   1.10e-06     
    81     8.67e-06   6.27e-06     
    82     8.07e-06   9.19e-06     
    83     7.88e-06   1.65e-08     
    84     7.90e-06   1.26e-06     
    85     7.81e-06   2.45e-07     
    86     7.58e-06   3.45e-06     
    87     8.09e-06   3.02e-06     
    88     8.01e-06   4.69e-06     
    89     6.06e-06   1.62e-05     
    90     6.83e-06   5.85e-06     
    91     6.48e-06   5.16e-07     
    92     5.65e-06   1.06e-05     
    93     5.13e-06   5.45e-07     
    94     4.80e-06   1.71e-06     
    95     5.00e-06   1.27e-06     
    96     4.19e-06   3.50e-06     
    97     3.66e-06   1.07e-06     
    98     3.33e-06   8.62e-08     
    99     3.15e-06   1.05e-06     
 ------------------------------------------------------------------------------
                                   Polarizability X-amplitude response conv
Performing DIIS for the y-component of dRdy
 ------------------------------------------------------------------------------
            Enorm      Xdiff       Comment
 ------------------------------------------------------------------------------
     1     1.67e+00   1.54e+00     
     2     1.63e+00   1.56e+00     
     3     1.35e+00   1.23e+00     
     4     2.06e+00   3.19e+00     Switched to DIIS steps.
     5     1.55e+00   1.12e+00     
     6     3.92e-01   9.98e-01     
     7     2.76e-01   8.16e-01     
     8     1.45e-01   3.61e-01     
     9     1.10e-01   5.55e-02     
    10     7.24e-02   2.22e-01     
    11     5.10e-02   9.76e-03     
    12     2.69e-02   8.71e-02     
    13     1.98e-02   1.11e-03     
    14     1.45e-02   9.60e-03     
    15     1.13e-02   9.05e-04     
    16     8.50e-03   7.19e-04     
    17     6.84e-03   5.30e-03     
    18     5.62e-03   5.63e-04     
    19     6.27e-03   1.76e-03     
    20     4.85e-03   3.06e-04     
    21     3.59e-03   2.10e-03     
    22     1.96e-03   6.59e-03     
    23     1.28e-03   2.87e-03     
    24     9.23e-04   1.61e-03     
    25     7.07e-04   3.23e-04     
    26     4.84e-04   4.31e-04     
    27     2.69e-04   2.82e-04     
    28     1.92e-04   9.00e-05     
    29     1.24e-04   2.17e-05     
    30     9.32e-05   3.80e-05     
    31     5.75e-05   6.95e-05     
    32     4.23e-05   3.38e-05     
    33     2.68e-05   2.32e-05     
    34     1.77e-05   3.73e-06     
    35     1.27e-05   1.06e-05     
    36     8.62e-06   9.55e-06     
    37     6.89e-06   1.09e-05     
    38     6.81e-06   2.64e-06     
    39     7.04e-06   3.85e-07     
    40     6.81e-06   1.89e-07     
    41     7.13e-06   4.01e-07     
    42     6.84e-06   1.99e-07     
    43     7.42e-06   2.92e-06     
    44     7.24e-06   1.96e-06     
    45     5.10e-06   3.08e-06     
    46     4.82e-06   2.09e-06     
    47     2.03e-06   4.00e-06     
    48     1.40e-06   1.38e-06     
    49     8.25e-07   1.14e-06     
    50     6.96e-07   8.22e-07     
 ------------------------------------------------------------------------------
                                   Polarizability X-amplitude response conv
Performing DIIS for the z-component of dRdy
 ------------------------------------------------------------------------------
            Enorm      Xdiff       Comment
 ------------------------------------------------------------------------------
     1     9.82e-01   9.17e-01     
     2     8.27e-01   7.91e-01     
     3     6.30e-01   5.89e-01     
     4     3.45e-01   1.65e+00     Switched to DIIS steps.
     5     2.71e-01   4.30e-01     
     6     1.74e-01   9.18e-01     
     7     1.51e-01   2.16e-01     
     8     1.25e-01   4.54e-01     
     9     9.94e-02   4.97e-01     
    10     8.37e-02   4.39e-01     
    11     7.29e-02   2.57e-01     
    12     6.36e-02   3.66e-01     
    13     6.11e-02   9.35e-02     
    14     6.13e-02   7.97e-02     
    15     6.10e-02   1.28e-02     
    16     6.02e-02   7.17e-03     
    17     5.96e-02   5.42e-03     
    18     5.98e-02   7.31e-04     
    19     5.79e-02   1.97e-02     
    20     5.28e-02   3.94e-02     
    21     4.52e-02   1.02e-01     
    22     4.03e-02   1.29e-01     
    23     3.77e-02   7.06e-02     
    24     3.58e-02   5.51e-02     
    25     3.33e-02   9.23e-02     
    26     3.18e-02   3.99e-02     
    27     3.06e-02   3.06e-02     
    28     2.49e-02   3.19e-02     
    29     1.83e-02   1.01e-01     
    30     1.28e-02   6.78e-02     
    31     7.45e-03   3.36e-02     
    32     4.84e-03   1.47e-02     
    33     3.51e-03   5.86e-03     
    34     2.07e-03   1.93e-02     
    35     1.19e-03   1.44e-02     
    36     8.94e-04   2.55e-03     
    37     6.72e-04   2.91e-03     
    38     5.45e-04   3.99e-04     
    39     4.26e-04   9.53e-05     
    40     3.29e-04   8.67e-05     
    41     2.43e-04   2.15e-04     
    42     1.83e-04   7.64e-04     
    43     1.61e-04   2.32e-04     
    44     1.44e-04   1.17e-04     
    45     1.29e-04   7.43e-05     
    46     1.12e-04   3.60e-04     
    47     1.00e-04   3.66e-04     
    48     9.63e-05   2.92e-04     
    49     9.67e-05   7.72e-05     
    50     9.67e-05   4.29e-05     
    51     9.69e-05   1.21e-05     
    52     9.62e-05   1.40e-06     
    53     9.57e-05   8.06e-05     
    54     9.56e-05   2.62e-05     
    55     9.56e-05   5.34e-05     
    56     9.57e-05   6.22e-05     
    57     9.58e-05   2.10e-06     
    58     9.57e-05   9.17e-07     
    59     9.59e-05   2.79e-06     
    60     9.55e-05   3.37e-07     
    61     9.18e-05   9.62e-05     
    62     7.62e-05   3.57e-04     
    63     6.25e-05   2.70e-04     
    64     4.45e-05   9.46e-05     
    65     3.32e-05   2.79e-05     
    66     1.93e-05   1.00e-04     
    67     1.35e-05   5.78e-05     
    68     1.02e-05   4.98e-05     
    69     8.77e-06   5.50e-05     
    70     6.63e-06   3.13e-05     
    71     5.48e-06   1.68e-05     
    72     3.87e-06   1.36e-05     
    73     3.54e-06   3.79e-06     
    74     3.68e-06   1.28e-06     
    75     3.19e-06   2.06e-06     
    76     2.35e-06   1.80e-06     
    77     1.67e-06   2.69e-06     
    78     1.35e-06   5.53e-06     
    79     1.20e-06   3.24e-06     
    80     1.23e-06   2.69e-06     
    81     1.21e-06   1.01e-07     
    82     9.15e-07   3.10e-06     
    83     6.39e-07   2.55e-06     
    84     5.81e-07   1.31e-06     
    85     5.66e-07   3.92e-07     
 ------------------------------------------------------------------------------
                                   Polarizability X-amplitude response conv

           EOM Polarizability response will be solved using DIIS.
           Start     Size      MaxIter   EConv     XConv     
           3         7         100       1.00e-06  1.00e-06  
Performing DIIS for the x-component of dLdy
 ------------------------------------------------------------------------------
            Enorm      Xdiff       Comment
 ------------------------------------------------------------------------------
     1     2.05e+00   1.75e+00     
     2     1.86e+00   1.69e+00     
     3     1.58e+00   1.32e+00     
     4     1.91e+00   2.12e+00     Switched to DIIS steps.
     5     1.52e+00   1.67e+00     
     6     1.10e+00   1.76e+00     
     7     9.16e-01   2.62e+00     
     8     5.36e-01   2.47e+00     
     9     3.14e-01   1.91e+00     
    10     2.10e-01   1.64e+00     
    11     1.61e-01   2.90e-01     
    12     9.43e-02   6.85e-01     
    13     6.08e-02   1.82e-03     
    14     4.51e-02   1.97e-01     
    15     3.19e-02   2.97e-02     
    16     2.28e-02   4.91e-02     
    17     2.10e-02   4.39e-02     
    18     2.39e-02   1.74e-02     
    19     2.01e-02   7.31e-03     
    20     1.58e-02   3.85e-02     
    21     1.07e-02   1.51e-02     
    22     8.21e-03   9.88e-03     
    23     4.73e-03   1.83e-02     
    24     3.34e-03   2.55e-02     
    25     2.36e-03   5.34e-04     
    26     1.57e-03   5.47e-03     
    27     1.19e-03   1.92e-03     
    28     7.63e-04   4.27e-03     
    29     5.53e-04   1.65e-03     
    30     2.58e-04   1.06e-03     
    31     1.60e-04   2.14e-04     
    32     1.20e-04   2.60e-04     
    33     1.43e-04   1.63e-04     
    34     1.31e-04   8.67e-05     
    35     1.35e-04   8.31e-05     
    36     1.09e-04   3.98e-04     
    37     8.14e-05   9.35e-05     
    38     6.66e-05   2.13e-04     
    39     3.94e-05   2.66e-06     
    40     2.54e-05   4.51e-05     
    41     1.98e-05   8.35e-05     
    42     1.66e-05   2.88e-05     
    43     1.09e-05   5.38e-05     
    44     7.67e-06   8.71e-07     
    45     4.25e-06   3.57e-06     
    46     3.75e-06   3.70e-06     
    47     3.83e-06   3.47e-06     
    48     3.41e-06   2.72e-06     
    49     2.53e-06   5.11e-06     
    50     1.43e-06   4.66e-06     
    51     1.16e-06   1.89e-06     
    52     9.84e-07   1.88e-06     
    53     1.03e-06   1.28e-07     
    54     9.17e-07   3.50e-07     
 ------------------------------------------------------------------------------
                                   Polarizability tX-amplitude response con
Performing DIIS for the y-component of dLdy
 ------------------------------------------------------------------------------
            Enorm      Xdiff       Comment
 ------------------------------------------------------------------------------
     1     1.91e+00   1.69e+00     
     2     1.77e+00   1.61e+00     
     3     1.54e+00   1.28e+00     
     4     2.33e+00   2.43e+00     Switched to DIIS steps.
     5     1.66e+00   1.30e+00     
     6     5.59e-01   6.62e-01     
     7     3.66e-01   1.17e+00     
     8     1.65e-01   4.26e-01     
     9     1.21e-01   1.27e-01     
    10     8.03e-02   1.92e-01     
    11     6.26e-02   2.95e-02     
    12     3.19e-02   8.85e-02     
    13     2.14e-02   7.00e-03     
    14     1.54e-02   1.18e-02     
    15     1.18e-02   5.92e-03     
    16     8.78e-03   5.20e-03     
    17     6.35e-03   6.29e-03     
    18     4.09e-03   3.17e-03     
    19     4.51e-03   4.36e-04     
    20     4.37e-03   8.73e-04     
    21     3.91e-03   1.61e-03     
    22     3.39e-03   1.03e-03     
    23     2.75e-03   7.04e-04     
    24     1.39e-03   1.83e-03     
    25     9.91e-04   7.02e-04     
    26     6.17e-04   7.97e-04     
    27     4.75e-04   2.11e-04     
    28     3.04e-04   5.54e-04     
    29     2.15e-04   2.01e-05     
    30     1.51e-04   2.21e-04     
    31     9.27e-05   4.29e-06     
    32     5.33e-05   6.89e-05     
    33     4.98e-05   1.48e-05     
    34     4.81e-05   3.82e-05     
    35     5.07e-05   6.75e-06     
    36     4.76e-05   1.42e-05     
    37     5.46e-05   1.50e-05     
    38     4.23e-05   3.06e-05     
    39     3.49e-05   1.49e-05     
    40     3.21e-05   4.10e-06     
    41     3.54e-05   6.67e-06     
    42     3.68e-05   1.59e-06     
    43     3.39e-05   4.23e-06     
    44     3.11e-05   3.35e-06     
    45     2.72e-05   5.50e-07     
    46     2.23e-05   1.88e-05     
    47     1.84e-05   1.89e-05     
    48     1.97e-05   1.60e-05     
    49     2.05e-05   4.07e-06     
    50     1.68e-05   3.22e-07     
    51     1.53e-05   8.79e-06     
    52     1.35e-05   9.08e-06     
    53     1.62e-05   8.42e-06     
    54     1.64e-05   2.70e-06     
    55     1.44e-05   5.18e-06     
    56     1.12e-05   1.70e-06     
    57     7.76e-06   9.10e-07     
    58     6.51e-06   3.23e-06     
    59     5.86e-06   6.58e-08     
    60     6.07e-06   1.90e-06     
    61     5.84e-06   2.22e-06     
    62     4.79e-06   2.49e-06     
    63     4.63e-06   1.54e-06     
    64     4.58e-06   1.16e-07     
    65     4.59e-06   4.50e-07     
    66     4.57e-06   8.44e-07     
    67     4.56e-06   2.15e-07     
    68     4.54e-06   6.82e-07     
    69     4.75e-06   3.96e-07     
    70     4.36e-06   1.10e-06     
    71     4.40e-06   2.81e-07     
    72     4.32e-06   4.86e-07     
    73     4.33e-06   4.54e-08     
    74     4.23e-06   3.26e-06     
    75     4.44e-06   4.05e-07     
    76     4.33e-06   2.02e-08     
    77     4.19e-06   1.53e-06     
    78     3.71e-06   5.33e-07     
    79     3.03e-06   1.30e-06     
    80     2.45e-06   2.22e-06     
    81     2.17e-06   1.06e-06     
    82     1.75e-06   1.30e-06     
    83     1.87e-06   3.58e-08     
    84     1.68e-06   6.25e-07     
    85     1.36e-06   1.55e-08     
    86     1.11e-06   1.35e-07     
    87     1.04e-06   4.27e-07     
    88     1.00e-06   1.71e-07     
    89     1.02e-06   3.80e-08     
    90     1.00e-06   1.26e-07     
    91     1.02e-06   1.19e-07     
    92     1.01e-06   1.53e-08     
    93     1.02e-06   1.56e-08     
    94     1.02e-06   1.89e-07     
    95     9.98e-07   3.43e-07     
 ------------------------------------------------------------------------------
                                   Polarizability tX-amplitude response con
Performing DIIS for the z-component of dLdy
 ------------------------------------------------------------------------------
            Enorm      Xdiff       Comment
 ------------------------------------------------------------------------------
     1     1.20e+00   1.11e+00     
     2     8.87e-01   7.99e-01     
     3     6.54e-01   5.60e-01     
     4     3.91e-01   1.30e+00     Switched to DIIS steps.
     5     2.89e-01   5.12e-01     
     6     2.04e-01   7.85e-01     
     7     1.63e-01   3.96e-01     
     8     1.43e-01   3.91e-01     
     9     1.16e-01   4.53e-01     
    10     9.61e-02   5.05e-01     
    11     8.26e-02   3.20e-01     
    12     7.32e-02   3.66e-01     
    13     6.96e-02   1.71e-01     
    14     6.93e-02   6.31e-02     
    15     6.96e-02   2.83e-02     
    16     6.81e-02   6.14e-02     
    17     6.78e-02   1.09e-01     
    18     6.78e-02   8.25e-03     
    19     6.79e-02   1.69e-02     
    20     6.76e-02   5.25e-02     
    21     6.32e-02   4.30e-02     
    22     5.03e-02   2.00e-01     
    23     4.32e-02   5.03e-02     
    24     3.28e-02   5.96e-03     
    25     2.66e-02   4.78e-02     
    26     1.86e-02   4.33e-02     
    27     9.64e-03   7.41e-02     
    28     5.64e-03   3.12e-02     
    29     3.64e-03   6.80e-03     
    30     2.04e-03   1.18e-03     
    31     1.21e-03   2.30e-03     
    32     7.80e-04   2.25e-04     
    33     4.83e-04   1.37e-04     
    34     3.89e-04   4.66e-04     
    35     2.99e-04   4.00e-04     
    36     1.89e-04   1.06e-03     
    37     1.44e-04   5.82e-04     
    38     1.17e-04   3.94e-04     
    39     9.05e-05   4.41e-04     
    40     7.28e-05   2.70e-04     
    41     6.49e-05   1.88e-04     
    42     6.10e-05   9.58e-05     
    43     5.81e-05   6.90e-05     
    44     5.82e-05   8.19e-05     
    45     5.80e-05   2.88e-05     
    46     5.79e-05   1.16e-05     
    47     5.76e-05   1.67e-05     
    48     5.77e-05   4.93e-06     
    49     5.79e-05   1.08e-05     
    50     5.79e-05   1.20e-05     
    51     5.70e-05   3.79e-05     
    52     5.67e-05   1.38e-05     
    53     5.59e-05   5.46e-06     
    54     5.25e-05   3.92e-05     
    55     4.82e-05   5.45e-06     
    56     3.35e-05   3.47e-04     
    57     1.87e-05   2.77e-04     
    58     1.46e-05   8.66e-05     
    59     9.29e-06   6.17e-05     
    60     7.46e-06   4.60e-06     
    61     6.14e-06   1.43e-05     
    62     4.98e-06   6.91e-07     
    63     3.88e-06   1.46e-05     
    64     2.64e-06   8.34e-06     
    65     2.22e-06   4.75e-06     
    66     2.01e-06   7.44e-07     
    67     2.03e-06   9.72e-07     
    68     1.94e-06   3.89e-07     
    69     1.58e-06   1.41e-06     
    70     1.32e-06   2.74e-06     
    71     1.18e-06   1.65e-06     
    72     1.12e-06   2.50e-07     
    73     1.12e-06   2.39e-07     
    74     1.10e-06   1.34e-07     
    75     1.04e-06   2.84e-07     
    76     1.02e-06   4.02e-07     
    77     1.01e-06   6.84e-08     
    78     1.02e-06   5.61e-08     
    79     1.01e-06   1.37e-07     
    80     9.94e-07   2.34e-07     
 ------------------------------------------------------------------------------
                                   Polarizability tX-amplitude response con

           CCSD Polarizability response will be solved using DIIS.
           Start     Size      MaxIter   EConv     XConv     
           3         7         100       1.00e-06  1.00e-06  
Performing DIIS for the x-component of dZdy
 ------------------------------------------------------------------------------
            Enorm      Xdiff       Comment
 ------------------------------------------------------------------------------
     1     1.19e+00   8.18e-01     
     2     6.11e-01   4.56e-01     
     3     3.77e-01   2.62e-01     
     4     1.11e-01   3.42e-01     Switched to DIIS steps.
     5     5.84e-02   7.22e-02     
     6     1.94e-02   3.64e-02     
     7     7.32e-03   8.31e-03     
     8     2.51e-03   2.93e-03     
     9     8.50e-04   5.23e-04     
    10     4.13e-04   4.83e-05     
    11     2.03e-04   1.11e-06     
    12     9.01e-05   1.47e-06     
    13     3.83e-05   9.54e-07     
    14     1.66e-05   3.47e-06     
    15     7.64e-06   2.85e-06     
    16     3.39e-06   2.12e-06     
    17     1.72e-06   1.19e-06     
    18     6.90e-07   7.82e-07     
 ------------------------------------------------------------------------------
                                   Polarizability X-amplitude response conv
Performing DIIS for the y-component of dZdy
 ------------------------------------------------------------------------------
            Enorm      Xdiff       Comment
 ------------------------------------------------------------------------------
     1     8.25e-01   6.71e-01     
     2     4.36e-01   3.76e-01     
     3     2.68e-01   2.19e-01     
     4     6.90e-02   2.86e-01     Switched to DIIS steps.
     5     4.36e-02   4.84e-02     
     6     1.51e-02   2.81e-02     
     7     6.68e-03   6.98e-03     
     8     2.78e-03   2.27e-03     
     9     8.66e-04   5.93e-04     
    10     3.64e-04   6.07e-05     
    11     1.42e-04   1.02e-05     
    12     5.12e-05   3.72e-08     
    13     1.82e-05   2.07e-06     
    14     8.46e-06   2.75e-06     
    15     4.33e-06   2.38e-06     
    16     1.87e-06   1.67e-06     
    17     1.05e-06   8.74e-07     
    18     4.17e-07   5.42e-07     
 ------------------------------------------------------------------------------
                                   Polarizability X-amplitude response conv
Performing DIIS for the z-component of dZdy
 ------------------------------------------------------------------------------
            Enorm      Xdiff       Comment
 ------------------------------------------------------------------------------
     1     5.35e-01   4.56e-01     
     2     2.57e-01   2.23e-01     
     3     1.41e-01   1.16e-01     
     4     2.77e-02   1.23e-01     Switched to DIIS steps.
     5     1.49e-02   1.40e-02     
     6     5.45e-03   5.31e-03     
     7     2.81e-03   9.41e-04     
     8     1.51e-03   3.32e-04     
     9     6.62e-04   1.38e-04     
    10     2.83e-04   2.66e-05     
    11     1.13e-04   2.28e-06     
    12     4.18e-05   8.89e-07     
    13     1.47e-05   1.87e-06     
    14     7.04e-06   1.83e-06     
    15     3.16e-06   1.29e-06     
    16     1.24e-06   7.39e-07     
    17     6.09e-07   2.67e-07     
 ------------------------------------------------------------------------------
                                   Polarizability X-amplitude response conv

Static polarizability with asymmetric derivative approach

 Polarizability Tensor ALPHA_IJ, I,J=X,Y,Z (a.u.):
 ------------------------------------------------------------------------------
        133.94193994   -0.84910893    0.00000000
         -0.83258106  102.78054631   -0.00000000
         -0.00000000   -0.00000000   51.69203387
 ------------------------------------------------------------------------------
 Isotropic polarizability: 1/3 * (a_xx + a_yy + a_zz)
 Isotropic polarizability in a.u. = 96.13817337
 Anisotropic polarizability: SQRT(0.5*((a_xx-a_yy)^2 + (a_yy-a_zz)^2 + (a_zz-a_xx)^2))
 Anisotropic polarizability in a.u. = 71.92397237
 ------------------------------------------------------------------------------
 Excited state properties for  EOMEE-CCSD transition 2/A'
 Relaxed dipole moment (a.u.): 1.168971 (X 1.074640, Y -0.460046, Z 0.000000)
 Relaxed R-squared (a.u.): 833.408266 (XX 504.378301, YY 292.802544, ZZ 36.227421)
 Gauge origin (a.u.): (0.000000, 0.000000, 0.000000)
 Relaxed angular momentum (a.u.) against gauge origin: 
 (X 0.000000i, Y 0.000000i, Z 0.000000i)
 Traces of the OPDMs: AA 29.000000, BB 29.000000

           EOM Polarizability response will be solved using DIIS.
           Start     Size      MaxIter   EConv     XConv     
           3         7         100       1.00e-06  1.00e-06  
Performing DIIS for the x-component of dRdy
 ------------------------------------------------------------------------------
            Enorm      Xdiff       Comment
 ------------------------------------------------------------------------------
     1     1.97e+00   1.76e+00     
     2     2.26e+00   2.15e+00     
     3     1.97e+00   1.83e+00     
     4     2.37e+00   5.10e+00     Switched to DIIS steps.
     5     2.34e+00   4.05e+00     
     6     2.01e+00   2.10e+00     
     7     2.01e+00   4.28e-01     
     8     1.83e+00   2.06e-01     
     9     1.20e+00   4.63e+00     
    10     9.43e-01   2.56e+00     
    11     7.44e-01   3.11e+00     
    12     5.91e-01   1.61e+00     
    13     5.70e-01   2.02e+00     
    14     5.02e-01   8.38e-01     
    15     4.65e-01   1.48e+00     
    16     3.57e-01   3.21e+00     
    17     2.65e-01   1.36e+00     
    18     2.55e-01   6.78e-01     
    19     1.91e-01   1.19e+00     
    20     1.50e-01   1.45e+00     
    21     1.31e-01   6.15e-01     
    22     1.17e-01   1.18e+00     
    23     1.03e-01   2.60e-01     
    24     9.39e-02   4.55e-01     
    25     8.57e-02   2.07e-01     
    26     7.80e-02   3.57e-01     
    27     6.45e-02   6.42e-01     
    28     6.58e-02   6.56e-02     
    29     6.47e-02   1.68e-03     
    30     6.22e-02   1.88e-02     
    31     5.46e-02   4.84e-02     
    32     4.47e-02   9.02e-02     
    33     3.79e-02   2.78e-01     
    34     3.28e-02   1.59e-02     
    35     3.36e-02   3.51e-02     
    36     3.22e-02   9.86e-02     
    37     3.21e-02   5.47e-02     
    38     3.37e-02   1.97e-02     
    39     3.21e-02   5.67e-02     
    40     3.12e-02   5.41e-02     
    41     3.01e-02   2.24e-02     
    42     3.07e-02   1.92e-02     
    43     3.38e-02   5.28e-02     
    44     3.38e-02   1.21e-01     
    45     3.32e-02   2.64e-01     
    46     3.13e-02   9.83e-03     
    47     2.79e-02   3.75e-02     
    48     2.43e-02   4.12e-02     
    49     1.92e-02   8.53e-02     
    50     1.92e-02   1.27e-02     
    51     1.89e-02   7.03e-03     
    52     1.88e-02   4.10e-05     
    53     1.83e-02   2.51e-02     
    54     1.74e-02   2.82e-02     
    55     1.78e-02   1.25e-03     
    56     1.77e-02   1.40e-03     
    57     1.73e-02   8.76e-03     
    58     1.67e-02   1.49e-02     
    59     1.64e-02   6.15e-03     
    60     1.63e-02   1.56e-03     
    61     1.63e-02   7.12e-03     
    62     1.66e-02   2.67e-04     
    63     1.60e-02   1.04e-02     
    64     1.61e-02   3.91e-03     
    65     1.55e-02   4.88e-03     
    66     1.57e-02   1.18e-03     
    67     1.56e-02   1.03e-02     
    68     1.52e-02   6.11e-03     
    69     1.54e-02   6.72e-03     
    70     1.59e-02   1.79e-02     
    71     1.57e-02   1.54e-02     
    72     1.54e-02   1.44e-02     
    73     1.46e-02   1.08e-02     
    74     1.41e-02   1.62e-03     
    75     1.36e-02   7.48e-03     
    76     1.32e-02   6.88e-03     
    77     1.32e-02   2.36e-02     
    78     1.33e-02   1.23e-02     
    79     1.25e-02   1.82e-02     
    80     1.26e-02   7.53e-03     
    81     1.26e-02   1.58e-02     
    82     1.26e-02   3.11e-03     
    83     1.24e-02   1.24e-02     
    84     1.27e-02   5.44e-03     
    85     1.19e-02   1.56e-02     
    86     1.17e-02   3.13e-03     
    87     1.15e-02   3.28e-03     
    88     1.12e-02   1.50e-02     
    89     1.09e-02   7.85e-03     
    90     1.09e-02   8.32e-03     
    91     1.09e-02   7.68e-03     
    92     1.05e-02   8.85e-03     
    93     1.04e-02   1.46e-02     
    94     1.02e-02   1.00e-02     
    95     1.02e-02   1.02e-02     
    96     1.03e-02   2.75e-04     
    97     1.00e-02   6.99e-03     
    98     9.82e-03   5.02e-02     
    99     9.68e-03   1.45e-03     
 ------------------------------------------------------------------------------
                                   Polarizability X-amplitude response conv
Performing DIIS for the y-component of dRdy
 ------------------------------------------------------------------------------
            Enorm      Xdiff       Comment
 ------------------------------------------------------------------------------
     1     2.11e+00   1.88e+00     
     2     2.82e+00   2.70e+00     
     3     2.52e+00   2.30e+00     
     4     4.40e+00   5.44e+00     Switched to DIIS steps.
     5     3.23e+00   3.90e+00     
     6     1.65e+00   3.68e+00     
     7     1.55e+00   2.66e+00     
     8     1.29e+00   3.92e+00     
     9     1.21e+00   3.49e+00     
    10     1.21e+00   8.35e-01     
    11     1.11e+00   2.93e+00     
    12     1.00e+00   3.35e-01     
    13     9.95e-01   1.17e+00     
    14     7.83e-01   4.27e+00     
    15     6.73e-01   3.40e+00     
    16     5.92e-01   2.42e-01     
    17     5.32e-01   2.19e+00     
    18     4.33e-01   2.74e+00     
    19     3.06e-01   8.34e+00     
    20     2.62e-01   1.71e+00     
    21     2.44e-01   1.88e+00     
    22     1.80e-01   1.72e+00     
    23     1.24e-01   7.24e-01     
    24     1.35e-01   1.80e-01     
    25     1.44e-01   1.78e-01     
    26     1.13e-01   5.59e-01     
    27     9.79e-02   3.35e-01     
    28     8.70e-02   2.50e-01     
    29     8.17e-02   5.66e-01     
    30     7.68e-02   1.56e-01     
    31     8.11e-02   4.51e-03     
    32     7.42e-02   1.20e-01     
    33     7.06e-02   4.49e-02     
    34     5.01e-02   3.71e-01     
    35     4.22e-02   1.03e-01     
    36     4.00e-02   9.86e-02     
    37     3.73e-02   2.62e-01     
    38     3.73e-02   8.00e-02     
    39     3.52e-02   1.59e-01     
    40     2.87e-02   3.53e-02     
    41     2.52e-02   8.87e-02     
    42     2.10e-02   8.99e-02     
    43     2.06e-02   2.04e-03     
    44     2.06e-02   1.19e-02     
    45     2.11e-02   4.29e-02     
    46     2.11e-02   4.90e-03     
    47     2.16e-02   1.27e-01     
    48     2.27e-02   5.25e-02     
    49     1.99e-02   4.48e-02     
    50     1.89e-02   1.15e-02     
    51     1.68e-02   6.30e-02     
    52     1.54e-02   3.85e-02     
    53     1.70e-02   1.10e-02     
    54     1.37e-02   6.04e-02     
    55     1.29e-02   3.51e-02     
    56     1.36e-02   7.50e-02     
    57     1.36e-02   2.46e-02     
    58     1.24e-02   1.71e-02     
    59     1.23e-02   6.68e-03     
    60     1.21e-02   1.52e-02     
    61     1.21e-02   1.85e-02     
    62     1.20e-02   4.52e-03     
    63     1.19e-02   4.24e-03     
    64     1.19e-02   1.54e-02     
    65     1.19e-02   1.32e-02     
    66     1.17e-02   6.41e-03     
    67     1.17e-02   2.22e-02     
    68     1.15e-02   3.81e-02     
    69     1.13e-02   1.48e-02     
    70     1.15e-02   9.06e-03     
    71     1.12e-02   3.36e-02     
    72     1.12e-02   1.92e-02     
    73     1.14e-02   1.90e-03     
    74     1.09e-02   7.66e-03     
    75     1.07e-02   4.97e-03     
    76     1.17e-02   2.25e-03     
    77     1.15e-02   1.37e-02     
    78     1.07e-02   3.75e-03     
    79     1.08e-02   4.27e-03     
    80     1.16e-02   5.24e-02     
    81     1.10e-02   5.12e-03     
    82     1.13e-02   3.74e-03     
    83     9.88e-03   2.89e-02     
    84     9.41e-03   3.67e-02     
    85     9.56e-03   1.25e-03     
    86     8.82e-03   1.38e-02     
    87     8.31e-03   5.68e-03     
    88     8.09e-03   1.38e-03     
    89     8.05e-03   1.35e-02     
    90     7.92e-03   1.26e-03     
    91     7.47e-03   9.87e-03     
    92     7.31e-03   9.00e-04     
    93     7.46e-03   5.72e-03     
    94     7.46e-03   9.32e-04     
    95     7.46e-03   7.72e-03     
    96     7.40e-03   6.59e-03     
    97     7.41e-03   5.57e-03     
    98     7.55e-03   7.24e-04     
    99     7.33e-03   3.00e-02     
 ------------------------------------------------------------------------------
                                   Polarizability X-amplitude response conv
Performing DIIS for the z-component of dRdy
 ------------------------------------------------------------------------------
            Enorm      Xdiff       Comment
 ------------------------------------------------------------------------------
     1     1.25e+00   1.15e+00     
     2     1.23e+00   1.19e+00     
     3     1.03e+00   9.77e-01     
     4     8.20e-01   3.43e+00     Switched to DIIS steps.
     5     7.26e-01   1.11e+00     
     6     5.10e-01   4.91e+00     
     7     4.56e-01   1.97e+00     
     8     3.89e-01   2.78e+00     
     9     3.75e-01   1.38e+00     
    10     3.82e-01   3.28e-01     
    11     3.66e-01   4.91e-01     
    12     3.51e-01   2.03e-02     
    13     2.87e-01   2.02e+00     
    14     2.46e-01   6.86e-01     
    15     2.17e-01   1.34e+00     
    16     1.89e-01   9.94e-01     
    17     1.74e-01   5.80e-01     
    18     1.65e-01   3.85e-01     
    19     1.64e-01   3.71e-02     
    20     1.65e-01   1.40e-01     
    21     1.63e-01   2.32e-01     
    22     1.60e-01   1.43e-01     
    23     1.58e-01   6.17e-01     
    24     1.55e-01   1.33e-01     
    25     1.52e-01   2.90e-01     
    26     1.52e-01   1.23e-01     
    27     1.52e-01   8.40e-03     
    28     1.49e-01   2.47e-01     
    29     1.54e-01   1.11e-02     
    30     1.39e-01   2.63e-01     
    31     1.23e-01   3.81e-01     
    32     1.04e-01   4.66e-01     
    33     8.05e-02   2.98e-01     
    34     7.02e-02   1.16e-01     
    35     6.54e-02   7.15e-02     
    36     6.23e-02   8.92e-02     
    37     5.96e-02   6.05e-02     
    38     5.89e-02   3.75e-03     
    39     5.91e-02   9.81e-03     
    40     5.90e-02   9.77e-04     
    41     5.87e-02   3.98e-04     
    42     5.82e-02   4.32e-02     
    43     5.73e-02   9.87e-02     
    44     5.71e-02   3.99e-02     
    45     5.71e-02   3.51e-03     
    46     5.72e-02   3.20e-02     
    47     5.73e-02   3.27e-02     
    48     5.75e-02   1.18e-02     
    49     5.71e-02   1.73e-02     
    50     5.74e-02   2.33e-02     
    51     5.50e-02   1.70e-01     
    52     5.34e-02   1.36e-01     
    53     5.14e-02   1.12e-01     
    54     4.58e-02   2.27e-01     
    55     4.27e-02   2.71e-02     
    56     3.87e-02   1.02e-01     
    57     3.65e-02   6.20e-02     
    58     3.50e-02   1.25e-01     
    59     3.44e-02   1.06e-01     
    60     3.45e-02   4.58e-02     
    61     3.46e-02   3.03e-02     
    62     3.45e-02   6.24e-04     
[...]
    90     2.41e-05   3.14e-06     
    91     2.65e-05   3.97e-06     
    92     2.64e-05   7.94e-07     
    93     2.25e-05   2.56e-05     
    94     2.14e-05   1.58e-05     
    95     1.98e-05   2.64e-05     
    96     1.96e-05   5.44e-06     
    97     1.96e-05   1.39e-07     
    98     1.91e-05   1.58e-07     
    99     1.89e-05   5.00e-06     
 ------------------------------------------------------------------------------
                                   Polarizability tX-amplitude response con
Performing DIIS for the z-component of dLdy
 ------------------------------------------------------------------------------
            Enorm      Xdiff       Comment
 ------------------------------------------------------------------------------
     1     4.91e+00   4.66e+00     
     2     4.57e+00   4.48e+00     
     3     3.91e+00   3.82e+00     
     4     1.49e+00   2.04e+01     Switched to DIIS steps.
     5     7.65e-01   6.65e+00     
     6     5.06e-01   2.65e+00     
     7     4.57e-01   1.29e-01     
     8     4.74e-01   6.96e-01     
     9     4.68e-01   1.46e-01     
    10     4.50e-01   2.49e-02     
    11     3.80e-01   2.85e-01     
    12     2.80e-01   5.50e-02     
    13     1.77e-01   3.67e-02     
    14     1.44e-01   5.94e-02     
    15     1.11e-01   1.75e-01     
    16     7.87e-02   2.42e-01     
    17     5.30e-02   3.19e-02     
    18     3.00e-02   5.33e-02     
    19     2.18e-02   6.34e-02     
    20     1.70e-02   1.80e-02     
    21     1.38e-02   1.74e-02     
    22     1.00e-02   5.99e-03     
    23     6.74e-03   1.61e-02     
    24     4.02e-03   1.36e-02     
    25     3.09e-03   4.98e-03     
    26     2.38e-03   1.50e-03     
    27     1.55e-03   1.16e-03     
    28     9.70e-04   1.80e-03     
    29     7.49e-04   4.12e-04     
    30     5.79e-04   6.22e-04     
    31     4.80e-04   2.37e-04     
    32     3.59e-04   5.37e-04     
    33     3.17e-04   2.85e-04     
    34     2.71e-04   3.32e-04     
    35     2.41e-04   2.57e-04     
    36     1.83e-04   2.77e-04     
    37     1.62e-04   1.83e-05     
    38     1.51e-04   8.30e-07     
    39     1.49e-04   7.94e-05     
    40     1.52e-04   1.28e-05     
    41     1.50e-04   3.30e-06     
    42     1.38e-04   7.79e-05     
    43     1.20e-04   1.99e-04     
    44     1.16e-04   1.04e-04     
    45     1.07e-04   1.49e-04     
    46     9.64e-05   7.67e-05     
    47     7.38e-05   7.32e-05     
    48     6.04e-05   1.27e-04     
    49     4.40e-05   1.44e-05     
    50     2.97e-05   2.32e-05     
    51     2.00e-05   1.55e-05     
    52     1.79e-05   1.74e-05     
    53     1.89e-05   1.42e-06     
    54     1.67e-05   2.08e-06     
    55     1.16e-05   1.87e-05     
    56     8.66e-06   3.30e-06     
    57     7.62e-06   4.58e-06     
    58     6.75e-06   4.00e-06     
    59     4.35e-06   2.04e-05     
    60     3.51e-06   4.24e-06     
    61     3.53e-06   1.14e-06     
    62     3.49e-06   1.47e-07     
    63     3.42e-06   2.79e-08     
    64     3.44e-06   8.52e-07     
    65     3.51e-06   7.48e-07     
    66     3.33e-06   2.16e-06     
    67     3.16e-06   3.50e-06     
    68     3.13e-06   1.84e-06     
    69     3.14e-06   2.83e-09     
    70     3.09e-06   3.24e-07     
    71     2.99e-06   3.69e-08     
    72     3.04e-06   2.45e-07     
    73     2.98e-06   8.48e-07     
    74     2.98e-06   5.31e-07     
    75     2.98e-06   2.16e-07     
    76     2.89e-06   1.76e-06     
    77     2.85e-06   9.97e-07     
    78     2.91e-06   1.38e-07     
    79     2.80e-06   2.02e-07     
    80     2.69e-06   3.12e-07     
    81     2.66e-06   2.37e-08     
    82     2.63e-06   4.86e-07     
    83     2.65e-06   2.42e-07     
    84     2.61e-06   1.75e-06     
    85     2.66e-06   3.34e-07     
    86     2.77e-06   5.03e-07     
    87     2.65e-06   1.32e-07     
    88     2.64e-06   1.94e-07     
    89     2.53e-06   1.02e-06     
    90     2.36e-06   1.33e-06     
    91     2.26e-06   1.80e-06     
    92     2.23e-06   1.64e-07     
    93     2.24e-06   1.77e-07     
    94     2.24e-06   6.59e-08     
    95     2.24e-06   5.76e-08     
    96     2.31e-06   4.74e-07     
    97     2.17e-06   1.86e-08     
    98     2.00e-06   8.22e-07     
    99     1.72e-06   3.05e-06     
 ------------------------------------------------------------------------------
                                   Polarizability tX-amplitude response con

           CCSD Polarizability response will be solved using DIIS.
           Start     Size      MaxIter   EConv     XConv     
           3         7         100       1.00e-06  1.00e-06  
Performing DIIS for the x-component of dZdy
 ------------------------------------------------------------------------------
            Enorm      Xdiff       Comment
 ------------------------------------------------------------------------------
     1     1.15e+00   5.72e-01     
     2     4.97e-01   3.59e-01     
     3     3.01e-01   1.86e-01     
     4     1.02e-01   1.95e-01     Switched to DIIS steps.
     5     5.71e-02   5.71e-02     
     6     1.72e-02   3.50e-02     
     7     7.36e-03   6.57e-03     
     8     2.69e-03   2.34e-03     
     9     1.03e-03   4.02e-04     
    10     4.59e-04   3.92e-05     
    11     2.07e-04   9.09e-06     
    12     8.09e-05   7.01e-06     
    13     3.43e-05   3.98e-07     
    14     1.61e-05   1.43e-06     
    15     7.71e-06   1.61e-06     
    16     3.40e-06   1.30e-06     
    17     1.65e-06   6.96e-07     
    18     6.40e-07   4.50e-07     
 ------------------------------------------------------------------------------
                                   Polarizability X-amplitude response conv
Performing DIIS for the y-component of dZdy
 ------------------------------------------------------------------------------
            Enorm      Xdiff       Comment
 ------------------------------------------------------------------------------
     1     9.56e-01   5.04e-01     
     2     3.93e-01   2.88e-01     
     3     2.27e-01   1.38e-01     
     4     7.86e-02   1.35e-01     Switched to DIIS steps.
     5     4.45e-02   3.72e-02     
     6     1.50e-02   2.31e-02     
     7     6.82e-03   5.21e-03     
     8     2.81e-03   1.88e-03     
     9     1.02e-03   4.62e-04     
    10     4.47e-04   5.55e-05     
    11     1.95e-04   1.72e-05     
    12     7.66e-05   3.20e-07     
    13     3.32e-05   4.69e-07     
    14     1.56e-05   2.19e-06     
    15     7.12e-06   1.71e-06     
    16     3.17e-06   1.43e-06     
    17     1.56e-06   7.30e-07     
    18     6.24e-07   4.75e-07     
 ------------------------------------------------------------------------------
                                   Polarizability X-amplitude response conv
Performing DIIS for the z-component of dZdy
 ------------------------------------------------------------------------------
            Enorm      Xdiff       Comment
 ------------------------------------------------------------------------------
     1     6.58e-01   3.36e-01     
     2     2.56e-01   1.83e-01     
     3     1.37e-01   8.08e-02     
     4     3.58e-02   7.16e-02     Switched to DIIS steps.
     5     1.83e-02   1.33e-02     
     6     6.26e-03   5.38e-03     
     7     3.30e-03   9.98e-04     
     8     1.62e-03   4.68e-04     
     9     7.64e-04   1.53e-04     
    10     3.64e-04   2.84e-05     
    11     1.59e-04   7.98e-06     
    12     5.76e-05   1.35e-06     
    13     2.39e-05   7.28e-07     
    14     1.20e-05   1.01e-06     
    15     5.77e-06   8.73e-07     
    16     2.46e-06   5.31e-07     
    17     1.16e-06   1.92e-07     
    18     4.42e-07   6.92e-08     
 ------------------------------------------------------------------------------
                                   Polarizability X-amplitude response conv

Static polarizability with asymmetric derivative approach

 Polarizability Tensor ALPHA_IJ, I,J=X,Y,Z (a.u.):
 ------------------------------------------------------------------------------
        564.23971444   18.45980527   -0.00000000
         18.43343001  457.48200966   -0.00000000
         -0.00000000   -0.00000000  320.27888061
 ------------------------------------------------------------------------------
 Isotropic polarizability: 1/3 * (a_xx + a_yy + a_zz)
 Isotropic polarizability in a.u. = 447.33353490
 Anisotropic polarizability: SQRT(0.5*((a_xx-a_yy)^2 + (a_yy-a_zz)^2 + (a_zz-a_xx)^2))
 Anisotropic polarizability in a.u. = 211.82397715
 ------------------------------------------------------------------------------
 EOMEE-CCSD calculation:   CPU 376402.01 s  wall 35444.89 s

 Total ccman2 time:   CPU 384159.42 s  wall 36202.16 s

 
 --------------------------------------------------------------
             Orbital Energies (a.u.) and Symmetries
 --------------------------------------------------------------
 
 Alpha MOs, Restricted
 -- Occupied --                  
-20.559 -20.554 -15.650 -15.634 -11.428 -11.390 -11.346 -11.261
  1 A'    2 A'    3 A'    4 A'    5 A'    6 A'    7 A'    8 A'                 
 -1.444  -1.410  -1.316  -1.248  -1.091  -0.934  -0.902  -0.808
  9 A'   10 A'   11 A'   12 A'   13 A'   14 A'   15 A'   16 A'                 
 -0.767  -0.715  -0.681  -0.668  -0.656  -0.619  -0.602  -0.573
 17 A'   18 A'   19 A'    1 A"   20 A'   21 A'   22 A'    2 A"                 
 -0.526  -0.485  -0.450  -0.437  -0.368
  3 A"   23 A'   24 A'    4 A"    5 A"                                         
 -- Virtual --                   
  0.019   0.041   0.049   0.060   0.071   0.084   0.097   0.101
 25 A'   26 A'   27 A'   28 A'    6 A"    7 A"   29 A'   30 A'                 
  0.116   0.121   0.127   0.131   0.138   0.148   0.150   0.154
 31 A'    8 A"   32 A'    9 A"   33 A'   34 A'   35 A'   10 A"                 
  0.168   0.173   0.177   0.188   0.195   0.202   0.209   0.252
 36 A'   37 A'   11 A"   38 A'   39 A'   40 A'   12 A"   41 A'                 
  0.253   0.261   0.268   0.280   0.292   0.305   0.317   0.319
 13 A"   14 A"   42 A'   43 A'   44 A'   45 A'   46 A'   15 A"                 
  0.323   0.330   0.338   0.346   0.348   0.365   0.366   0.375
 47 A'   48 A'   49 A'   16 A"   50 A'   17 A"   51 A'   52 A'                 
  0.379   0.399   0.412   0.418   0.441   0.442   0.445   0.475
 53 A'   54 A'   55 A'   56 A'   57 A'   18 A"   58 A'   19 A"                 
  0.481   0.494   0.502   0.513   0.517   0.550   0.558   0.566
 59 A'   20 A"   60 A'   21 A"   61 A'   62 A'   63 A'   64 A'                 
  0.574   0.591   0.613   0.625   0.631   0.634   0.644   0.648
 65 A'   22 A"   66 A'   67 A'   68 A'   23 A"   69 A'   24 A"                 
  0.676   0.693   0.699   0.703   0.719   0.735   0.763   0.766
 70 A'   71 A'   72 A'   25 A"   26 A"   73 A'   74 A'   75 A'                 
  0.787   0.802   0.809   0.819   0.832   0.833   0.854   0.856
 27 A"   76 A'   77 A'   78 A'   79 A'   80 A'   28 A"   81 A'                 
  0.867   0.889   0.917   0.939   0.942   0.966   0.968   0.977
 29 A"   82 A'   30 A"   31 A"   83 A'   84 A'   32 A"   85 A'                 
  0.988   0.999   1.029   1.053   1.060   1.080   1.094   1.118
 86 A'   87 A'   88 A'   33 A"   89 A'   90 A'   34 A"   35 A"                 
  1.135   1.163   1.165   1.217   1.221   1.238   1.276   1.284
 91 A'   92 A'   36 A"   37 A"   93 A'   94 A'   38 A"   39 A"                 
  1.308   1.344   1.350   1.353   1.384   1.440   1.467   1.485
 95 A'   96 A'   40 A"   97 A'   98 A'   99 A'  100 A'  101 A'                 
  1.510   1.528   1.543   1.543   1.561   1.595   1.638   1.639
102 A'  103 A'   41 A"  104 A'   42 A"  105 A'   43 A"  106 A'                 
  1.657   1.669   1.702   1.756   1.783   1.819   1.828   1.848
 44 A"  107 A'  108 A'   45 A"  109 A'   46 A"   47 A"  110 A'                 
  1.863   1.906   1.933   1.959   1.977   1.980   1.995   1.999
111 A'   48 A"   49 A"  112 A'  113 A'  114 A'   50 A"  115 A'                 
  2.012   2.048   2.092   2.103   2.150   2.200   2.217   2.224
 51 A"  116 A'  117 A'   52 A"  118 A'  119 A'   53 A"  120 A'                 
  2.238   2.263   2.320   2.331   2.350   2.368   2.410   2.441
 54 A"  121 A'   55 A"  122 A'  123 A'  124 A'  125 A'   56 A"                 
  2.450   2.478   2.510   2.543   2.573   2.620   2.692   2.721
126 A'  127 A'  128 A'  129 A'  130 A'  131 A'  132 A'   57 A"                 
  2.732   2.780   2.783   2.822   2.841   2.856   2.873   2.895
133 A'   58 A"  134 A'   59 A"  135 A'  136 A'   60 A"  137 A'                 
  2.991   3.004   3.088   3.144   3.167   3.225   3.324   3.356
138 A'  139 A'  140 A'  141 A'  142 A'  143 A'  144 A'  145 A'                 
  3.448   3.534   3.578   3.725   3.743   3.757   3.794   3.816
146 A'  147 A'  148 A'   61 A"  149 A'   62 A"   63 A"   64 A"                 
  3.816   3.819   4.030   4.052   4.077   4.160   4.298
150 A'  151 A'  152 A'  153 A'  154 A'  155 A'  156 A'                         
 
 Beta MOs, Restricted
 -- Occupied --                  
-20.559 -20.554 -15.650 -15.634 -11.428 -11.390 -11.346 -11.261
  1 A'    2 A'    3 A'    4 A'    5 A'    6 A'    7 A'    8 A'                 
 -1.444  -1.410  -1.316  -1.248  -1.091  -0.934  -0.902  -0.808
  9 A'   10 A'   11 A'   12 A'   13 A'   14 A'   15 A'   16 A'                 
 -0.767  -0.715  -0.681  -0.668  -0.656  -0.619  -0.602  -0.573
 17 A'   18 A'   19 A'    1 A"   20 A'   21 A'   22 A'    2 A"                 
 -0.526  -0.485  -0.450  -0.437  -0.368
  3 A"   23 A'   24 A'    4 A"    5 A"                                         
 -- Virtual --                   
  0.019   0.041   0.049   0.060   0.071   0.084   0.097   0.101
 25 A'   26 A'   27 A'   28 A'    6 A"    7 A"   29 A'   30 A'                 
  0.116   0.121   0.127   0.131   0.138   0.148   0.150   0.154
 31 A'    8 A"   32 A'    9 A"   33 A'   34 A'   35 A'   10 A"                 
  0.168   0.173   0.177   0.188   0.195   0.202   0.209   0.252
 36 A'   37 A'   11 A"   38 A'   39 A'   40 A'   12 A"   41 A'                 
  0.253   0.261   0.268   0.280   0.292   0.305   0.317   0.319
 13 A"   14 A"   42 A'   43 A'   44 A'   45 A'   46 A'   15 A"                 
  0.323   0.330   0.338   0.346   0.348   0.365   0.366   0.375
 47 A'   48 A'   49 A'   16 A"   50 A'   17 A"   51 A'   52 A'                 
  0.379   0.399   0.412   0.418   0.441   0.442   0.445   0.475
 53 A'   54 A'   55 A'   56 A'   57 A'   18 A"   58 A'   19 A"                 
  0.481   0.494   0.502   0.513   0.517   0.550   0.558   0.566
 59 A'   20 A"   60 A'   21 A"   61 A'   62 A'   63 A'   64 A'                 
  0.574   0.591   0.613   0.625   0.631   0.634   0.644   0.648
 65 A'   22 A"   66 A'   67 A'   68 A'   23 A"   69 A'   24 A"                 
  0.676   0.693   0.699   0.703   0.719   0.735   0.763   0.766
 70 A'   71 A'   72 A'   25 A"   26 A"   73 A'   74 A'   75 A'                 
  0.787   0.802   0.809   0.819   0.832   0.833   0.854   0.856
 27 A"   76 A'   77 A'   78 A'   79 A'   80 A'   28 A"   81 A'                 
  0.867   0.889   0.917   0.939   0.942   0.966   0.968   0.977
 29 A"   82 A'   30 A"   31 A"   83 A'   84 A'   32 A"   85 A'                 
  0.988   0.999   1.029   1.053   1.060   1.080   1.094   1.118
 86 A'   87 A'   88 A'   33 A"   89 A'   90 A'   34 A"   35 A"                 
  1.135   1.163   1.165   1.217   1.221   1.238   1.276   1.284
 91 A'   92 A'   36 A"   37 A"   93 A'   94 A'   38 A"   39 A"                 
  1.308   1.344   1.350   1.353   1.384   1.440   1.467   1.485
 95 A'   96 A'   40 A"   97 A'   98 A'   99 A'  100 A'  101 A'                 
  1.510   1.528   1.543   1.543   1.561   1.595   1.638   1.639
102 A'  103 A'   41 A"  104 A'   42 A"  105 A'   43 A"  106 A'                 
  1.657   1.669   1.702   1.756   1.783   1.819   1.828   1.848
 44 A"  107 A'  108 A'   45 A"  109 A'   46 A"   47 A"  110 A'                 
  1.863   1.906   1.933   1.959   1.977   1.980   1.995   1.999
111 A'   48 A"   49 A"  112 A'  113 A'  114 A'   50 A"  115 A'                 
  2.012   2.048   2.092   2.103   2.150   2.200   2.217   2.224
 51 A"  116 A'  117 A'   52 A"  118 A'  119 A'   53 A"  120 A'                 
  2.238   2.263   2.320   2.331   2.350   2.368   2.410   2.441
 54 A"  121 A'   55 A"  122 A'  123 A'  124 A'  125 A'   56 A"                 
  2.450   2.478   2.510   2.543   2.573   2.620   2.692   2.721
126 A'  127 A'  128 A'  129 A'  130 A'  131 A'  132 A'   57 A"                 
  2.732   2.780   2.783   2.822   2.841   2.856   2.873   2.895
133 A'   58 A"  134 A'   59 A"  135 A'  136 A'   60 A"  137 A'                 
  2.991   3.004   3.088   3.144   3.167   3.225   3.324   3.356
138 A'  139 A'  140 A'  141 A'  142 A'  143 A'  144 A'  145 A'                 
  3.448   3.534   3.578   3.725   3.743   3.757   3.794   3.816
146 A'  147 A'  148 A'   61 A"  149 A'   62 A"   63 A"   64 A"                 
  3.816   3.819   4.030   4.052   4.077   4.160   4.298
150 A'  151 A'  152 A'  153 A'  154 A'  155 A'  156 A'                         
 --------------------------------------------------------------
 
          Ground-State Mulliken Net Atomic Charges

     Atom                 Charge (a.u.)
  ----------------------------------------
      1 N                    -0.359105
      2 C                     0.810039
      3 N                    -0.318015
      4 C                     0.508802
      5 C                     0.841773
      6 C                     0.657302
      7 H                    -0.089500
      8 O                    -0.564262
      9 H                    -0.075630
     10 O                    -0.615302
     11 H                    -0.431966
     12 H                    -0.364137
  ----------------------------------------
  Sum of atomic charges =     0.000000

 -----------------------------------------------------------------
                    Cartesian Multipole Moments
 -----------------------------------------------------------------
    Charge (ESU x 10^10)
                -0.0000
    Dipole Moment (Debye)
         X       1.1451      Y      -4.1656      Z       0.0000
       Tot       4.3201
    Quadrupole Moments (Debye-Ang)
        XX     -58.8336     XY      -2.3691     YY     -39.3910
        XZ      -0.0000     YZ       0.0000     ZZ     -47.1873
    Octopole Moments (Debye-Ang^2)
       XXX       9.7009    XXY     -30.4333    XYY       4.8250
       YYY      -6.1370    XXZ       0.0000    XYZ      -0.0000
       YYZ       0.0000    XZZ       1.4817    YZZ       4.3881
       ZZZ       0.0000
    Hexadecapole Moments (Debye-Ang^3)
      XXXX    -721.2399   XXXY     -12.7163   XXYY    -176.6554
      XYYY     -12.5253   YYYY    -321.7406   XXXZ      -0.0000
      XXYZ       0.0000   XYYZ       0.0000   YYYZ       0.0000
      XXZZ    -114.2695   XYZZ      -2.7121   YYZZ     -76.5558
      XZZZ       0.0000   YZZZ       0.0000   ZZZZ     -47.8727
 -----------------------------------------------------------------
Archival summary:
1\1\Knecht18\SP\ProcedureUnspecified\BasisUnspecified\2244\mscheure\SatMar1400:34:322020SatMar1400:34:322020\0\\#,ProcedureUnspecified,BasisUnspecified,\\0,1\N\H,1,1.0112\C,1,1.3801,2,115.65\O,3,1.2084,1,124.43,2,-0,0\N,3,1.3908,1,112.92,2,180,0\H,5,1.006,3,115.03,1,180,0\C,5,1.37059,3,123.578,1,0,0\H,7,1.0808,5,115.42,3,-180,0\C,7,1.3426,5,121.982,3,-0,0\H,9,1.0769,7,121.92,5,-180,0\C,1,1.4092,2,116.2,3,180,0\O,11,1.211,1,120.42,2,0,0\\HF=-412.531321\\@

 Total job time:  36353.13s(wall), 384572.96s(cpu) 
 Sat Mar 14 00:34:32 2020

        *************************************************************
        *                                                           *
        *  Thank you very much for using Q-Chem.  Have a nice day.  *
        *                                                           *
        *************************************************************


