                  Welcome to Q-Chem
     A Quantum Leap Into The Future Of Chemistry


 Q-Chem 5.3 (devel), Q-Chem, Inc., Pleasanton, CA (2020)

 Yihan Shao,  Zhengting Gan,  E. Epifanovsky,  A. T. B. Gilbert,  M. Wormit,  
 J. Kussmann,  A. W. Lange,  A. Behn,  Jia Deng,  Xintian Feng,  D. Ghosh,  
 M. Goldey,  P. R. Horn,  L. D. Jacobson,  I. Kaliman,  T. Kus,  A. Landau,  
 Jie Liu,  E. I. Proynov,  R. M. Richard,  R. P. Steele,  E. J. Sundstrom,  
 H. L. Woodcock III,  P. M. Zimmerman,  D. Zuev,  B. Alam,  B. Albrecht,  
 E. Alguire,  S. A. Baeppler,  D. Barton,  Z. Benda,  Y. A. Bernard,  
 E. J. Berquist,  K. B. Bravaya,  H. Burton,  K. Carter-Fenk,  D. Casanova,  
 Chun-Min Chang,  Yunqing Chen,  A. Chien,  K. D. Closser,  M. P. Coons,  
 S. Coriani,  S. Dasgupta,  A. L. Dempwolff,  M. Diedenhofen,  Hainam Do,  
 R. G. Edgar,  Po-Tung Fang,  S. Faraji,  S. Fatehi,  Qingguo Feng,  
 J. Fosso-Tande,  J. Gayvert,  Qinghui Ge,  A. Ghysels,  G. Gidofalvi,  
 J. Gomes,  J. Gonthier,  A. Gunina,  D. Hait,  M. W. D. Hanson-Heine,  
 P. H. P. Harbach,  A. W. Hauser,  M. F. Herbst,  J. E. Herr,  
 E. G. Hohenstein,  Z. C. Holden,  Kerwin Hui,  B. C. Huynh,  T.-C. Jagau,  
 Hyunjun Ji,  B. Kaduk,  K. Khistyaev,  Jaehoon Kim,  P. Klunzinger,  K. Koh,  
 D. Kosenkov,  L. Koulias,  T. Kowalczyk,  C. M. Krauter,  A. Kunitsa,  
 Ka Un Lao,  A. Laurent,  K. V. Lawler,  Joonho Lee,  D. Lefrancois,  
 S. Lehtola,  D. S. Levine,  Yi-Pei Li,  You-Sheng Lin,  Fenglai Liu,  
 Kuan-Yu Liu,  E. Livshits,  M. Loipersberger,  A. Luenser,  P. Manohar,  
 E. Mansoor,  S. F. Manzer,  Shan-Ping Mao,  Yuezhi Mao,  N. Mardirossian,  
 A. V. Marenich,  T. Markovich,  L. A. Martinez-Martinez,  S. A. Maurer,  
 N. J. Mayhall,  S. C. McKenzie,  J.-M. Mewes,  P. Morgante,  A. F. Morrison,  
 J. W. Mullinax,  K. Nanda,  T. S. Nguyen-Beck,  R. Olivares-Amaya,  
 J. A. Parkhill,  S. K. Paul,  F. Pavosevic,  Zheng Pei,  T. M. Perrine,  
 F. Plasser,  P. Pokhilko,  S. Prager,  A. Prociuk,  E. Ramos,  B. Rana,  
 D. R. Rehn,  F. Rob,  M. Scheurer,  M. Schneider,  N. Sergueev,  
 S. M. Sharada,  S. Sharma,  D. W. Small,  T. Stauch,  C. J. Stein,  
 T. Stein,  Yu-Chuan Su,  S. P. Veccham,  Zhen Tao,  A. J. W. Thom,  
 A. Tkatchenko,  T. Tsuchimochi,  N. M. Tubman,  L. Vogt,  M. L. Vidal,  
 O. Vydrov,  M. A. Watson,  J. Wenzel,  M. de Wergifosse,  T. A. Wesolowski,  
 A. White,  J. Witte,  A. Yamada,  Jun Yang,  K. Yao,  S. Yeganeh,  
 S. R. Yost,  Zhi-Qiang You,  A. Zech,  Igor Ying Zhang,  Xing Zhang,  
 Yan Zhao,  Ying Zhu,  B. R. Brooks,  G. K. L. Chan,  C. J. Cramer,  
 M. S. Gordon,  W. J. Hehre,  A. Klamt,  M. W. Schmidt,  C. D. Sherrill,  
 D. G. Truhlar,  A. Aspuru-Guzik,  R. Baer,  A. T. Bell,  N. A. Besley,  
 Jeng-Da Chai,  A. E. DePrince, III,  R. A. DiStasio Jr.,  A. Dreuw,  
 B. D. Dunietz,  T. R. Furlani,  Chao-Ping Hsu,  Yousung Jung,  Jing Kong,  
 D. S. Lambrecht,  WanZhen Liang,  C. Ochsenfeld,  V. A. Rassolov,  
 L. V. Slipchenko,  J. E. Subotnik,  T. Van Voorhis,  J. M. Herbert,  
 A. I. Krylov,  P. M. W. Gill,  M. Head-Gordon

 Contributors to earlier versions of Q-Chem not listed above: 
 R. D. Adamson,  B. Austin,  J. Baker,  G. J. O. Beran,  K. Brandhorst,  
 S. T. Brown,  E. F. C. Byrd,  A. K. Chakraborty,  C.-L. Cheng,  
 Siu Hung Chien,  D. M. Chipman,  D. L. Crittenden,  H. Dachsel,  
 R. J. Doerksen,  A. D. Dutoi,  L. Fusti-Molnar,  W. A. Goddard III,  
 A. Golubeva-Zadorozhnaya,  S. R. Gwaltney,  G. Hawkins,  A. Heyden,  
 S. Hirata,  G. Kedziora,  F. J. Keil,  C. Kelley,  Jihan Kim,  R. A. King,  
 R. Z. Khaliullin,  P. P. Korambath,  W. Kurlancheek,  A. M. Lee,  M. S. Lee,  
 S. V. Levchenko,  Ching Yeh Lin,  D. Liotard,  R. C. Lochan,  I. Lotan,  
 P. E. Maslen,  N. Nair,  D. P. O'Neill,  D. Neuhauser,  E. Neuscamman,  
 C. M. Oana,  R. Olson,  B. Peters,  R. Peverati,  P. A. Pieniazek,  
 Y. M. Rhee,  J. Ritchie,  M. A. Rohrdanz,  E. Rosta,  N. J. Russ,  
 H. F. Schaefer III,  N. E. Schultz,  N. Shenvi,  A. C. Simmonett,  A. Sodt,  
 D. Stuck,  K. S. Thanthiriwatte,  V. Vanovschi,  Tao Wang,  A. Warshel,  
 C. F. Williams,  Q. Wu,  X. Xu,  W. Zhang

 Please cite Q-Chem as follows:
 Y. Shao et al., Mol. Phys. 113, 184-215 (2015)
 DOI: 10.1080/00268976.2014.952696

 Q-Chem 5.3.0 for Intel X86 EM64T Linux

 Parts of Q-Chem use Armadillo 9.800.1 (Horizon Scraper).
 http://arma.sourceforge.net/

 Q-Chem begins on Sun Apr 19 17:34:08 2020  

Host: 
0

     Scratch files written to /lscratch/mscheure/naphthalene_eompol2_347638.Meister/qchem230337//
Processing $rem in /export/home/mscheure/data/qchem_ccman2_pe/qchem/config/preferences:
Processing $rem in /export/home/mscheure/.qchemrc:
Core orbitals will be frozen

Checking the input file for inconsistencies... 	...done.

--------------------------------------------------------------
User input:
--------------------------------------------------------------
$molecule
 0 1
C	2.4263501231	-0.7056037689	0.0000000000
C	2.4263501231	0.7056037689	0.0000000000
C	1.2376214393	1.4004977720	0.0000000000
C	0.0000000000	0.7148848658	0.0000000000
C	0.0000000000	-0.7148848658	0.0000000000
C	1.2376214393	-1.4004977720	0.0000000000
C	-1.2376214393	-1.4004977720	0.0000000000
C	-2.4263501231	-0.7056037689	0.0000000000
C	-2.4263501231	0.7056037689	0.0000000000
C	-1.2376214393	1.4004977720	0.0000000000
H	3.3655793057	-1.2419330757	0.0000000000
H	3.3655793057	1.2419330757	0.0000000000
H	1.2353527952	2.4836421100	0.0000000000
H	1.2353527952	-2.4836421100	0.0000000000
H	-1.2353527952	-2.4836421100	0.0000000000
H	-3.3655793057	-1.2419330757	0.0000000000
H	-3.3655793057	1.2419330757	0.0000000000
H	-1.2353527952	2.4836421100	0.0000000000
$end

$rem
   METHOD            ccsd
   BASIS aug-cc-pvdz
   CC_REF_PROP       true
   CC_EOM_PROP       true
   CC_POL            2 ! der
   EOM_POL           2 ! der
   CC_FULLRESPONSE   true ! Kaushik
   ee_singlets 	    [0,0,0,0,0,0,0,1]
   mem_total 670000
   threads 12
   symmetry         false
   thresh 14
$end
--------------------------------------------------------------
 ----------------------------------------------------------------
             Standard Nuclear Orientation (Angstroms)
    I     Atom           X                Y                Z
 ----------------------------------------------------------------
    1      C       2.4263501231    -0.7056037689     0.0000000000
    2      C       2.4263501231     0.7056037689    -0.0000000000
    3      C       1.2376214393     1.4004977720    -0.0000000000
    4      C      -0.0000000000     0.7148848658    -0.0000000000
    5      C       0.0000000000    -0.7148848658     0.0000000000
    6      C       1.2376214393    -1.4004977720     0.0000000000
    7      C      -1.2376214393    -1.4004977720     0.0000000000
    8      C      -2.4263501231    -0.7056037689     0.0000000000
    9      C      -2.4263501231     0.7056037689    -0.0000000000
   10      C      -1.2376214393     1.4004977720    -0.0000000000
   11      H       3.3655793057    -1.2419330757     0.0000000000
   12      H       3.3655793057     1.2419330757    -0.0000000000
   13      H       1.2353527952     2.4836421100    -0.0000000000
   14      H       1.2353527952    -2.4836421100     0.0000000000
   15      H      -1.2353527952    -2.4836421100     0.0000000000
   16      H      -3.3655793057    -1.2419330757     0.0000000000
   17      H      -3.3655793057     1.2419330757    -0.0000000000
   18      H      -1.2353527952     2.4836421100    -0.0000000000
 ----------------------------------------------------------------
 Molecular Point Group                 D2h   NOp =  8
 Largest Abelian Subgroup              D2h   NOp =  8
 Nuclear Repulsion Energy =         458.55411536 hartrees
 There are       34 alpha and       34 beta electrons
 Requested basis set is aug-cc-pVDZ
 There are 130 shells and 302 basis functions
 Total memory of 670000 MB is distributed as follows: 
   MEM_STATIC is set to 192 MB
   QALLOC/CCMAN JOB total memory use is  669808 MB
 Warning: actual memory use might exceed 670000 MB

 Total QAlloc Memory Limit 670000 MB
 Mega-Array Size       188 MB
 MEM_STATIC part       192 MB
 A cutoff of  1.0D-14 yielded   8427 shell pairs
 There are     45651 function pairs (     51973 Cartesian)
 Smallest overlap matrix eigenvalue = 8.20E-07
 Linear dependence detected in AO basis
 Tighter screening thresholds may be required for diffuse basis sets
 Use S2THRESH > 14 and THRESH = 14 in case of SCF convergence issues
 Number of orthogonalized atomic orbitals = 301
 Maximum deviation from orthogonality = 1.522E-10

 Scale SEOQF with 1.000000e-01/1.000000e-01/1.000000e-01

 Standard Electronic Orientation quadrupole field applied
 Nucleus-field energy     =     0.0000000151 hartrees
 Guess from superposition of atomic densities
 Warning:  Energy on first SCF cycle will be non-variational
 SAD guess density has 68.000000 electrons

 -----------------------------------------------------------------------
  General SCF calculation program by
  Eric Jon Sundstrom, Paul Horn, Yuezhi Mao, Dmitri Zuev, Alec White,
  David Stuck, Shaama M.S., Shane Yost, Joonho Lee, David Small,
  Daniel Levine, Susi Lehtola, Hugh Burton, Evgeny Epifanovsky,
  Bang C. Huynh
 -----------------------------------------------------------------------
 Hartree-Fock
 using 12 threads for integral computing
 -------------------------------------------------------
 OpenMP Integral computing Module                
 Release: version 2.0, May 2017, Q-Chem Inc. Pleasanton 
 -------------------------------------------------------
 A restricted SCF calculation will be
 performed using DIIS
 SCF converges when DIIS error is below 1.0e-08
 ---------------------------------------
  Cycle       Energy         DIIS error
 ---------------------------------------
    1    -388.0208911350      3.89e-02  
    2    -383.2849239982      2.45e-03  
    3    -383.3853386428      6.47e-04  
    4    -383.3929932520      2.21e-04  
    5    -383.3936578904      3.55e-05  
    6    -383.3936925915      1.56e-05  
    7    -383.3937001051      5.79e-06  
    8    -383.3937019961      2.68e-06  
    9    -383.3937023048      8.60e-07  
   10    -383.3937023344      1.73e-07  
   11    -383.3937023357      2.84e-08  
   12    -383.3937023357      4.62e-09  Convergence criterion met
 ---------------------------------------
 SCF time:   CPU 549.56s  wall 46.00s 
 SCF   energy in the final basis set =     -383.3937023357
 Total energy in the final basis set =     -383.3937023357


 ------------------------------------------------------------------------------

   CCMAN2: suite of methods based on coupled cluster
           and equation of motion theories.

   Components:
   * libvmm-1.3-trunk
     by Evgeny Epifanovsky, Ilya Kaliman.
   * libtensor-2.5-trunk
     by Evgeny Epifanovsky, Michael Wormit, Dmitry Zuev, Sam Manzer, 
        Ilya Kaliman.
   * libcc-2.5-trunk
     by Evgeny Epifanovsky, Arik Landau, Tomasz Kus, Kirill Khistyaev, 
        Dmitry Zuev, Prashant Manohar, Xintian Feng, Anna Krylov, 
        Matthew Goldey, Alec White, Thomas Jagau, Kaushik Nanda, 
        Anastasia Gunina, Alexander Kunitsa, Joonho Lee.

   CCMAN original authors:
   Anna I. Krylov, C. David Sherrill, Steven R. Gwaltney,
   Edward F. C. Byrd (2000)
   Sergey V. Levchenko, Lyudmila V. Slipchenko, Tao Wang,
   Ana-Maria C. Cristian (2003)
   Piotr A. Pieniazek, C. Melania Oana, Evgeny Epifanovsky (2007)
   Prashant Manohar (2009)

 ------------------------------------------------------------------------------


 Allocating and initializing 669808MB of RAM (this may take a while)...
 Calculation will run on 12 cores.

 
 Alpha MOs, Restricted
 -- Occupied --                  
-11.249 -11.248 -11.244 -11.244 -11.244 -11.243 -11.243 -11.243
  1 Ag    1 B2u   1 B3u   2 Ag    1 B1g   2 B2u   2 B3u   3 Ag                 
-11.242 -11.242  -1.181  -1.113  -1.055  -1.013  -0.984  -0.858
  2 B1g   3 B2u   4 Ag    3 B3u   4 B2u   5 Ag    3 B1g   4 B3u                
 -0.839  -0.815  -0.710  -0.702  -0.680  -0.626  -0.614  -0.586
  5 B2u   6 Ag    4 B1g   5 B3u   7 Ag    6 B2u   8 Ag    6 B3u                
 -0.585  -0.565  -0.534  -0.527  -0.490  -0.479  -0.449  -0.387
  5 B1g   7 B2u   1 B1u   7 B3u   6 B1g   9 Ag    1 B2g   1 B3g                
 -0.320  -0.288
  2 B1u   1 Au                                                                 
 -- Virtual --                   
  0.035   0.037   0.039   0.051   0.053   0.067   0.074   0.075
 10 Ag    8 B3u   8 B2u   7 B1g  11 Ag    9 B2u   9 B3u   2 B2g                
  0.093   0.099   0.099   0.110   0.118   0.124   0.132   0.133
  8 B1g   3 B1u   2 B3g  12 Ag    3 B3g  10 B3u  10 B2u   4 B1u                
  0.138   0.145   0.149   0.150   0.153   0.154   0.158   0.165
  3 B2g  13 Ag   11 B2u  11 B3u   9 B1g   2 Au   14 Ag   12 B2u                
  0.166   0.168   0.188   0.194   0.195   0.195   0.201   0.207
 15 Ag   12 B3u  10 B1g  13 B2u   4 B3g   5 B1u  16 Ag   13 B3u                
  0.211   0.213   0.215   0.222   0.246   0.249   0.261   0.274
 11 B1g   4 B2g   6 B1u   3 Au   12 B1g  17 Ag    5 B3g  14 B2u                
  0.281   0.287   0.297   0.303   0.309   0.311   0.324   0.343
 14 B3u   4 Au   18 Ag   15 B3u  15 B2u  19 Ag   16 B2u  20 Ag                 
  0.345   0.346   0.346   0.355   0.356   0.367   0.367   0.377
 13 B1g  16 B3u  17 B2u  17 B3u  18 B2u   6 B3g   5 B2g  21 Ag                 
  0.384   0.390   0.396   0.400   0.403   0.410   0.412   0.441
 14 B1g  19 B2u   7 B1u  15 B1g  18 B3u  22 Ag   16 B1g  19 B3u                
  0.443   0.450   0.457   0.462   0.467   0.469   0.479   0.503
  7 B3g  20 B2u  23 Ag   17 B1g   5 Au    8 B1u  21 B2u   6 B2g                
  0.507   0.518   0.520   0.536   0.551   0.556   0.557   0.566
 20 B3u  18 B1g  24 Ag   25 Ag    9 B1u   8 B3g   6 Au   21 B3u                
  0.567   0.584   0.594   0.609   0.637   0.646   0.647   0.647
 22 B2u  26 Ag    7 B2g  23 B2u  22 B3u  27 Ag   10 B1u  19 B1g                
  0.649   0.649   0.654   0.671   0.679   0.681   0.684   0.688
 24 B2u   8 B2g  23 B3u   9 B3g  25 B2u  28 Ag   24 B3u  29 Ag                 
  0.693   0.698   0.707   0.714   0.716   0.728   0.729   0.735
 20 B1g  26 B2u  21 B1g  27 B2u  25 B3u  26 B3u  11 B1u  22 B1g                
  0.738   0.742   0.757   0.765   0.776   0.776   0.782   0.784
 30 Ag    7 Au   23 B1g  31 Ag   10 B3g  24 B1g  28 B2u  27 B3u                
  0.792   0.818   0.856   0.859   0.869   0.871   0.889   0.894
 25 B1g   9 B2g  29 B2u  12 B1u  28 B3u  32 Ag    8 Au   30 B2u                
  0.909   0.917   0.922   0.926   0.932   0.936   0.945   0.948
 10 B2g  33 Ag   13 B1u  29 B3u   9 Au   26 B1g  31 B2u  11 B3g                
  0.953   0.962   0.972   0.976   1.010   1.012   1.012   1.013
 12 B3g  14 B1u  11 B2g  10 Au   13 B3g  32 B2u  15 B1u  27 B1g                
  1.022   1.060   1.064   1.066   1.079   1.086   1.107   1.116
 34 Ag   30 B3u  28 B1g  12 B2g  33 B2u  29 B1g  14 B3g  11 Au                 
  1.142   1.169   1.187   1.203   1.233   1.243   1.260   1.279
 35 Ag   31 B3u  13 B2g  34 B2u  12 Au   16 B1u  36 Ag   32 B3u                
  1.293   1.295   1.342   1.351   1.434   1.467   1.475   1.494
 30 B1g  35 B2u  36 B2u  15 B3g  37 Ag   13 Au   31 B1g  33 B3u                
  1.506   1.518   1.531   1.535   1.536   1.551   1.564   1.590
 17 B1u  14 B2g  34 B3u  38 Ag   16 B3g  37 B2u  32 B1g  39 Ag                 
  1.605   1.610   1.620   1.622   1.636   1.638   1.639   1.653
 35 B3u  38 B2u  33 B1g  40 Ag   18 B1u  39 B2u  41 Ag   36 B3u                
  1.666   1.669   1.699   1.748   1.749   1.761   1.762   1.791
 15 B2g  34 B1g  17 B3g  14 Au   16 B2g  19 B1u  42 Ag   37 B3u                
  1.794   1.794   1.796   1.799   1.835   1.848   1.854   1.893
 35 B1g  43 Ag   18 B3g  38 B3u  40 B2u  15 Au   20 B1u  44 Ag                 
  1.909   1.911   1.947   1.953   1.958   1.972   1.973   1.977
 39 B3u  36 B1g  40 B3u  45 Ag   19 B3g  16 Au   41 B2u  17 B2g                
  1.983   2.015   2.055   2.061   2.083   2.084   2.087   2.087
 42 B2u  37 B1g  46 Ag   43 B2u  38 B1g  41 B3u  47 Ag   44 B2u                
  2.098   2.110   2.117   2.125   2.147   2.149   2.189   2.192
 42 B3u  18 B2g  48 Ag   21 B1u  17 Au   39 B1g  20 B3g  22 B1u                
  2.232   2.264   2.266   2.267   2.285   2.290   2.301   2.308
 19 B2g  18 Au   45 B2u  49 Ag   21 B3g  40 B1g  43 B3u  46 B2u                
  2.335   2.338   2.360   2.371   2.379   2.395   2.411   2.417
 23 B1u  41 B1g  47 B2u  44 B3u  42 B1g  50 Ag   20 B2g  48 B2u                
  2.440   2.440   2.503   2.528   2.533   2.572   2.605   2.698
 51 Ag   45 B3u  49 B2u  19 Au   22 B3g  46 B3u  43 B1g  23 B3g                
  2.718   2.723   2.754   2.808   2.838   2.840   2.853   2.951
 47 B3u  20 Au   52 Ag   53 Ag   44 B1g  50 B2u  48 B3u  45 B1g                
  2.953   2.966   3.043   3.049   3.068   3.116   3.200   3.216
 51 B2u  49 B3u  54 Ag   46 B1g  52 B2u  55 Ag   50 B3u  47 B1g                
  3.249   3.369   3.377   3.403   3.529   3.669   3.680   3.867
 53 B2u  48 B1g  56 Ag   54 B2u  51 B3u  57 Ag   55 B2u  56 B2u                
  3.881   4.539   4.762
 49 B1g  50 B1g  57 B2u                                                        
 
 Beta MOs, Restricted
 -- Occupied --                  
-11.249 -11.248 -11.244 -11.244 -11.244 -11.243 -11.243 -11.243
  1 Ag    1 B2u   1 B3u   2 Ag    1 B1g   2 B2u   2 B3u   3 Ag                 
-11.242 -11.242  -1.181  -1.113  -1.055  -1.013  -0.984  -0.858
  2 B1g   3 B2u   4 Ag    3 B3u   4 B2u   5 Ag    3 B1g   4 B3u                
 -0.839  -0.815  -0.710  -0.702  -0.680  -0.626  -0.614  -0.586
  5 B2u   6 Ag    4 B1g   5 B3u   7 Ag    6 B2u   8 Ag    6 B3u                
 -0.585  -0.565  -0.534  -0.527  -0.490  -0.479  -0.449  -0.387
  5 B1g   7 B2u   1 B1u   7 B3u   6 B1g   9 Ag    1 B2g   1 B3g                
 -0.320  -0.288
  2 B1u   1 Au                                                                 
 -- Virtual --                   
  0.035   0.037   0.039   0.051   0.053   0.067   0.074   0.075
 10 Ag    8 B3u   8 B2u   7 B1g  11 Ag    9 B2u   9 B3u   2 B2g                
  0.093   0.099   0.099   0.110   0.118   0.124   0.132   0.133
  8 B1g   3 B1u   2 B3g  12 Ag    3 B3g  10 B3u  10 B2u   4 B1u                
  0.138   0.145   0.149   0.150   0.153   0.154   0.158   0.165
  3 B2g  13 Ag   11 B2u  11 B3u   9 B1g   2 Au   14 Ag   12 B2u                
  0.166   0.168   0.188   0.194   0.195   0.195   0.201   0.207
 15 Ag   12 B3u  10 B1g  13 B2u   4 B3g   5 B1u  16 Ag   13 B3u                
  0.211   0.213   0.215   0.222   0.246   0.249   0.261   0.274
 11 B1g   4 B2g   6 B1u   3 Au   12 B1g  17 Ag    5 B3g  14 B2u                
  0.281   0.287   0.297   0.303   0.309   0.311   0.324   0.343
 14 B3u   4 Au   18 Ag   15 B3u  15 B2u  19 Ag   16 B2u  20 Ag                 
  0.345   0.346   0.346   0.355   0.356   0.367   0.367   0.377
 13 B1g  16 B3u  17 B2u  17 B3u  18 B2u   6 B3g   5 B2g  21 Ag                 
  0.384   0.390   0.396   0.400   0.403   0.410   0.412   0.441
 14 B1g  19 B2u   7 B1u  15 B1g  18 B3u  22 Ag   16 B1g  19 B3u                
  0.443   0.450   0.457   0.462   0.467   0.469   0.479   0.503
  7 B3g  20 B2u  23 Ag   17 B1g   5 Au    8 B1u  21 B2u   6 B2g                
  0.507   0.518   0.520   0.536   0.551   0.556   0.557   0.566
 20 B3u  18 B1g  24 Ag   25 Ag    9 B1u   8 B3g   6 Au   21 B3u                
  0.567   0.584   0.594   0.609   0.637   0.646   0.647   0.647
 22 B2u  26 Ag    7 B2g  23 B2u  22 B3u  27 Ag   10 B1u  19 B1g                
  0.649   0.649   0.654   0.671   0.679   0.681   0.684   0.688
 24 B2u   8 B2g  23 B3u   9 B3g  25 B2u  28 Ag   24 B3u  29 Ag                 
  0.693   0.698   0.707   0.714   0.716   0.728   0.729   0.735
 20 B1g  26 B2u  21 B1g  27 B2u  25 B3u  26 B3u  11 B1u  22 B1g                
  0.738   0.742   0.757   0.765   0.776   0.776   0.782   0.784
 30 Ag    7 Au   23 B1g  31 Ag   10 B3g  24 B1g  28 B2u  27 B3u                
  0.792   0.818   0.856   0.859   0.869   0.871   0.889   0.894
 25 B1g   9 B2g  29 B2u  12 B1u  28 B3u  32 Ag    8 Au   30 B2u                
  0.909   0.917   0.922   0.926   0.932   0.936   0.945   0.948
 10 B2g  33 Ag   13 B1u  29 B3u   9 Au   26 B1g  31 B2u  11 B3g                
  0.953   0.962   0.972   0.976   1.010   1.012   1.012   1.013
 12 B3g  14 B1u  11 B2g  10 Au   13 B3g  32 B2u  15 B1u  27 B1g                
  1.022   1.060   1.064   1.066   1.079   1.086   1.107   1.116
 34 Ag   30 B3u  28 B1g  12 B2g  33 B2u  29 B1g  14 B3g  11 Au                 
  1.142   1.169   1.187   1.203   1.233   1.243   1.260   1.279
 35 Ag   31 B3u  13 B2g  34 B2u  12 Au   16 B1u  36 Ag   32 B3u                
  1.293   1.295   1.342   1.351   1.434   1.467   1.475   1.494
 30 B1g  35 B2u  36 B2u  15 B3g  37 Ag   13 Au   31 B1g  33 B3u                
  1.506   1.518   1.531   1.535   1.536   1.551   1.564   1.590
 17 B1u  14 B2g  34 B3u  38 Ag   16 B3g  37 B2u  32 B1g  39 Ag                 
  1.605   1.610   1.620   1.622   1.636   1.638   1.639   1.653
 35 B3u  38 B2u  33 B1g  40 Ag   18 B1u  39 B2u  41 Ag   36 B3u                
  1.666   1.669   1.699   1.748   1.749   1.761   1.762   1.791
 15 B2g  34 B1g  17 B3g  14 Au   16 B2g  19 B1u  42 Ag   37 B3u                
  1.794   1.794   1.796   1.799   1.835   1.848   1.854   1.893
 35 B1g  43 Ag   18 B3g  38 B3u  40 B2u  15 Au   20 B1u  44 Ag                 
  1.909   1.911   1.947   1.953   1.958   1.972   1.973   1.977
 39 B3u  36 B1g  40 B3u  45 Ag   19 B3g  16 Au   41 B2u  17 B2g                
  1.983   2.015   2.055   2.061   2.083   2.084   2.087   2.087
 42 B2u  37 B1g  46 Ag   43 B2u  38 B1g  41 B3u  47 Ag   44 B2u                
  2.098   2.110   2.117   2.125   2.147   2.149   2.189   2.192
 42 B3u  18 B2g  48 Ag   21 B1u  17 Au   39 B1g  20 B3g  22 B1u                
  2.232   2.264   2.266   2.267   2.285   2.290   2.301   2.308
 19 B2g  18 Au   45 B2u  49 Ag   21 B3g  40 B1g  43 B3u  46 B2u                
  2.335   2.338   2.360   2.371   2.379   2.395   2.411   2.417
 23 B1u  41 B1g  47 B2u  44 B3u  42 B1g  50 Ag   20 B2g  48 B2u                
  2.440   2.440   2.503   2.528   2.533   2.572   2.605   2.698
 51 Ag   45 B3u  49 B2u  19 Au   22 B3g  46 B3u  43 B1g  23 B3g                
  2.718   2.723   2.754   2.808   2.838   2.840   2.853   2.951
 47 B3u  20 Au   52 Ag   53 Ag   44 B1g  50 B2u  48 B3u  45 B1g                
  2.953   2.966   3.043   3.049   3.068   3.116   3.200   3.216
 51 B2u  49 B3u  54 Ag   46 B1g  52 B2u  55 Ag   50 B3u  47 B1g                
  3.249   3.369   3.377   3.403   3.529   3.669   3.680   3.867
 53 B2u  48 B1g  56 Ag   54 B2u  51 B3u  57 Ag   55 B2u  56 B2u                
  3.881   4.539   4.762
 49 B1g  50 B1g  57 B2u                                                        

 Occupation and symmetry of molecular orbitals

 Point group: D2h (8 irreducible representations).

                           Ag   B1g  B2g  B3g  Au   B1u  B2u  B3u   All 
 ------------------------------------------------------------------------
 All molecular orbitals:
  - Alpha                  57   50   20   23   20   23   57   51    301 
  - Beta                   57   50   20   23   20   23   57   51    301 
 ------------------------------------------------------------------------
 Alpha orbitals:
  - Frozen occupied        3    2    0    0    0    0    3    2     10  
  - Active occupied        6    4    1    1    1    2    4    5     24  
  - Active virtual         48   44   19   22   19   21   50   44    267 
  - Frozen virtual         0    0    0    0    0    0    0    0     0   
 ------------------------------------------------------------------------
 Beta orbitals:
  - Frozen occupied        3    2    0    0    0    0    3    2     10  
  - Active occupied        6    4    1    1    1    2    4    5     24  
  - Active virtual         48   44   19   22   19   21   50   44    267 
  - Frozen virtual         0    0    0    0    0    0    0    0     0   
 ------------------------------------------------------------------------

 Import integrals:   CPU 0.00 s  wall 0.00 s

 Import integrals:   CPU 1251.93 s  wall 109.30 s

 MP2 amplitudes:   CPU 22.77 s  wall 20.44 s

Running a double precision version
           CCSD T amplitudes will be solved using DIIS.

           Start     Size      MaxIter   EConv     TConv     
           3         7         100       1.00e-06  1.00e-04  
 ------------------------------------------------------------------------------
           Energy (a.u.)   Ediff      Tdiff       Comment
 ------------------------------------------------------------------------------
          -384.73637588                           
     1    -384.73192173   4.45e-03   1.18e+00     
     2    -384.77407389   4.22e-02   1.70e-01     
     3    -384.77388589   1.88e-04   5.96e-02     
     4    -384.77764708   3.76e-03   1.79e-02     Switched to DIIS steps.
     5    -384.77917404   1.53e-03   1.38e-02     
     6    -384.77925647   8.24e-05   2.98e-03     
     7    -384.77923470   2.18e-05   1.57e-03     
     8    -384.77923165   3.05e-06   3.34e-04     
     9    -384.77923194   2.90e-07   1.47e-04     
    10    -384.77923190   3.76e-08   4.02e-05     
 ------------------------------------------------------------------------------
          -384.77923190                           CCSD T converged.

End of double precision
 SCF energy                 = -383.39370234
 MP2 energy                 = -384.73637588
 CCSD correlation energy    =   -1.38552957
 CCSD total energy          = -384.77923190

 CCSD  T1^2 = 0.0095  T2^2 = 0.5607  Leading amplitudes:

 Amplitude    Orbitals with energies
 -0.0203       1 (Au) A                  ->    10 (Au) A                   
              -0.2883                          0.9755                      
 -0.0203       1 (Au) B                  ->    10 (Au) B                   
              -0.2883                          0.9755                      
 -0.0171       2 (B1u) A                 ->    14 (B1u) A                  
              -0.3202                          0.9624                      
 -0.0171       2 (B1u) B                 ->    14 (B1u) B                  
              -0.3202                          0.9624                      

 Amplitude    Orbitals with energies
 -0.0632       1 (Au) A      1 (Au) B    ->    2 (B2g) A     2 (B2g) B    
              -0.2883       -0.2883            0.0753        0.0753       
  0.0632       1 (Au) A      1 (Au) B    ->    2 (B2g) B     2 (B2g) A    
              -0.2883       -0.2883            0.0753        0.0753       
  0.0632       1 (Au) B      1 (Au) A    ->    2 (B2g) A     2 (B2g) B    
              -0.2883       -0.2883            0.0753        0.0753       
 -0.0632       1 (Au) B      1 (Au) A    ->    2 (B2g) B     2 (B2g) A    
              -0.2883       -0.2883            0.0753        0.0753       

 Computing CCSD intermediates for later calculations in double precision
 Finished.

Running a double precision version
           CCSD Lambda amplitudes will be solved using DIIS.
           Start     Size      MaxIter   EConv     LConv     
           3         7         100       1.00e-06  1.00e-04  
 ------------------------------------------------------------------------------
            Enorm      Ldiff       Comment
 ------------------------------------------------------------------------------
     1     7.33e-02   6.07e-02     
     2     1.35e-02   7.30e-04     
     3     4.96e-03   2.80e-03     
     4     1.76e-03   1.26e-04     Switched to DIIS steps.
     5     5.56e-04   4.26e-04     
     6     2.29e-04   6.52e-05     
     7     8.82e-05   2.71e-05     
     8     4.20e-05   5.87e-06     
     9     1.49e-05   2.26e-06     
    10     5.79e-06   2.64e-07     
    11     2.09e-06   8.14e-08     
    12     7.11e-07   1.31e-07     
 ------------------------------------------------------------------------------
                                   CCSD Lambda converged.

 Computing density matrices in double precision...
           Orbital response amplitudes will be solved using DIIS.
           Start     Size      MaxIter   EConv     LConv     
           3         7         100       1.00e-06  1.00e-06  
 ------------------------------------------------------------------------------
            Enorm      Ldiff       Comment
 ------------------------------------------------------------------------------
     1     4.21e-02   1.17e-02     
     2     1.32e-02   4.72e-04     
     3     7.56e-03   7.43e-04     
     4     1.59e-03   1.78e-04     Switched to DIIS steps.
     5     7.82e-04   4.05e-05     
     6     2.10e-04   3.23e-05     
     7     5.79e-05   1.75e-05     
     8     1.89e-05   2.40e-06     
     9     1.68e-06   1.35e-06     
    10     3.94e-07   6.47e-08     
 ------------------------------------------------------------------------------
                                   Orbital response converged.

 Computing density matrices... Done.
 Reference state properties
 Relaxed dipole moment (a.u.): 0.000000 (X 0.000000, Y 0.000000, Z 0.000000)
 Relaxed R-squared (a.u.): 1289.849586 (XX 858.807146, YY 382.342669, ZZ 48.699771)
 Gauge origin (a.u.): (0.000000, 0.000000, 0.000000)
 Relaxed angular momentum (a.u.) against gauge origin: 
 (X 0.000000i, Y 0.000000i, Z 0.000000i)
 Traces of the OPDMs: AA 34.000000, BB 34.000000
 Relaxed density matrix was written to a file for further analysis.
           CCSD Polarizability response will be solved using DIIS.
           Start     Size      MaxIter   EConv     XConv     
           3         7         100       1.00e-06  1.00e-06  
Performing DIIS for the x-component of dTdy
 ------------------------------------------------------------------------------
            Enorm      Xdiff       Comment
 ------------------------------------------------------------------------------
     1     2.87e+00   2.48e+00     
     2     2.13e+00   2.03e+00     
     3     1.23e+00   1.13e+00     
     4     4.49e-01   1.76e+00     Switched to DIIS steps.
     5     1.49e-01   4.24e-01     
     6     2.35e-02   1.44e-01     
     7     1.13e-02   4.03e-03     
     8     5.01e-03   1.95e-03     
     9     2.66e-03   4.23e-04     
    10     1.23e-03   2.76e-05     
    11     4.32e-04   5.93e-05     
    12     1.41e-04   4.08e-05     
    13     5.06e-05   1.93e-05     
    14     2.60e-05   1.89e-05     
    15     1.23e-05   1.77e-05     
    16     5.45e-06   1.03e-05     
    17     1.94e-06   5.15e-06     
    18     9.81e-07   1.64e-06     
    19     5.41e-07   6.40e-07     
 ------------------------------------------------------------------------------
                                   Polarizability X-amplitude response conv
Performing DIIS for the y-component of dTdy
 ------------------------------------------------------------------------------
            Enorm      Xdiff       Comment
 ------------------------------------------------------------------------------
     1     2.22e+00   1.84e+00     
     2     1.51e+00   1.42e+00     
     3     8.15e-01   7.19e-01     
     4     3.19e-01   9.69e-01     Switched to DIIS steps.
     5     1.33e-01   2.24e-01     
     6     3.63e-02   1.17e-01     
     7     1.50e-02   1.12e-02     
     8     6.30e-03   3.99e-03     
     9     1.85e-03   9.94e-04     
    10     7.80e-04   4.24e-05     
    11     3.04e-04   3.10e-05     
    12     1.17e-04   1.87e-06     
    13     3.92e-05   1.11e-05     
    14     1.81e-05   1.17e-05     
    15     8.61e-06   8.92e-06     
    16     4.34e-06   5.38e-06     
    17     2.01e-06   3.18e-06     
    18     1.09e-06   1.38e-06     
    19     3.97e-07   6.31e-07     
 ------------------------------------------------------------------------------
                                   Polarizability X-amplitude response conv
Performing DIIS for the z-component of dTdy
 ------------------------------------------------------------------------------
            Enorm      Xdiff       Comment
 ------------------------------------------------------------------------------
     1     1.38e+00   1.11e+00     
     2     7.44e-01   6.69e-01     
     3     3.82e-01   3.22e-01     
     4     6.09e-02   3.46e-01     Switched to DIIS steps.
     5     2.57e-02   2.46e-02     
     6     7.42e-03   7.06e-03     
     7     2.16e-03   9.29e-04     
     8     8.17e-04   2.16e-04     
     9     2.65e-04   6.32e-05     
    10     1.20e-04   3.08e-06     
    11     3.83e-05   6.00e-06     
    12     1.40e-05   1.00e-06     
    13     4.55e-06   1.90e-06     
    14     1.91e-06   1.14e-06     
    15     7.75e-07   5.83e-07     
 ------------------------------------------------------------------------------
                                   Polarizability X-amplitude response conv

           CCSD Polarizability response will be solved using DIIS.
           Start     Size      MaxIter   EConv     XConv     
           3         7         100       1.00e-06  1.00e-06  
Performing DIIS for the x-component of dZdy
 ------------------------------------------------------------------------------
            Enorm      Xdiff       Comment
 ------------------------------------------------------------------------------
     1     2.41e+00   2.14e+00     
     2     1.64e+00   1.56e+00     
     3     9.74e-01   8.97e-01     
     4     2.90e-01   1.44e+00     Switched to DIIS steps.
     5     1.19e-01   2.10e-01     
     6     1.95e-02   1.14e-01     
     7     8.91e-03   6.87e-03     
     8     4.21e-03   1.28e-03     
     9     2.24e-03   1.83e-04     
    10     1.05e-03   4.77e-05     
    11     3.45e-04   7.09e-06     
    12     1.07e-04   1.33e-05     
    13     3.33e-05   2.18e-05     
    14     1.73e-05   2.90e-06     
    15     8.18e-06   3.77e-06     
    16     4.34e-06   5.42e-06     
    17     1.63e-06   3.70e-06     
    18     6.31e-07   1.64e-06     
    19     3.02e-07   5.11e-07     
 ------------------------------------------------------------------------------
                                   Polarizability X-amplitude response conv
Performing DIIS for the y-component of dZdy
 ------------------------------------------------------------------------------
            Enorm      Xdiff       Comment
 ------------------------------------------------------------------------------
     1     1.88e+00   1.62e+00     
     2     1.16e+00   1.09e+00     
     3     6.40e-01   5.72e-01     
     4     2.03e-01   7.69e-01     Switched to DIIS steps.
     5     9.58e-02   1.05e-01     
     6     2.73e-02   7.48e-02     
     7     1.09e-02   1.07e-02     
     8     4.65e-03   2.59e-03     
     9     1.46e-03   6.00e-04     
    10     6.18e-04   1.15e-04     
    11     2.37e-04   1.63e-05     
    12     8.83e-05   1.60e-06     
    13     2.88e-05   9.66e-06     
    14     1.32e-05   2.20e-06     
    15     6.07e-06   3.00e-06     
    16     3.42e-06   3.12e-06     
    17     1.42e-06   2.30e-06     
    18     7.65e-07   1.01e-06     
    19     2.50e-07   4.53e-07     
 ------------------------------------------------------------------------------
                                   Polarizability X-amplitude response conv
Performing DIIS for the z-component of dZdy
 ------------------------------------------------------------------------------
            Enorm      Xdiff       Comment
 ------------------------------------------------------------------------------
     1     1.27e+00   1.02e+00     
     2     6.77e-01   6.11e-01     
     3     3.53e-01   3.02e-01     
     4     5.46e-02   3.35e-01     Switched to DIIS steps.
     5     2.37e-02   1.81e-02     
     6     6.82e-03   8.25e-03     
     7     1.97e-03   1.22e-03     
     8     7.60e-04   1.19e-04     
     9     2.43e-04   7.81e-05     
    10     1.10e-04   1.59e-05     
    11     3.53e-05   2.09e-06     
    12     1.22e-05   1.84e-06     
    13     3.80e-06   2.19e-06     
    14     1.60e-06   1.25e-07     
    15     6.75e-07   1.99e-07     
 ------------------------------------------------------------------------------
                                   Polarizability X-amplitude response conv

Static polarizability with asymmetric derivative approach

 Polarizability Tensor ALPHA_IJ, I,J=X,Y,Z (a.u.):
 ------------------------------------------------------------------------------
        166.78212274   -0.00000000   -0.00000000
         -0.00000000  123.13566746   -0.00000000
         -0.00000000   -0.00000000   66.67228956
 ------------------------------------------------------------------------------
 Isotropic polarizability: 1/3 * (a_xx + a_yy + a_zz)
 Isotropic polarizability in a.u. = 118.86335992
 Anisotropic polarizability: SQRT(0.5*((a_xx-a_yy)^2 + (a_yy-a_zz)^2 + (a_zz-a_xx)^2))
 Anisotropic polarizability in a.u. = 86.93418431
 ------------------------------------------------------------------------------

 CCSD calculation:   CPU 11184.00 s  wall 1410.97 s

        Solving for EOMEE-CCSD B3u singlet states.

Running a double precision version
        EOMEE-CCSD/MP2 right amplitudes will be solved using Davidson.
        Amplitudes will be solved using standard  algorithm.
     Hard-coded thresholds: 
     LinDepThresh=1.00e-15  NormThresh=1.00e-06  ReorthogonThresh=1.00e-02

      Roots     MaxVec    MaxIter   Precond   Conv      Shift    
      1         120       60        1         1.00e-05  0.00e+00  
 ------------------------------------------------------------------------------
      Iter ConvRoots NVecs ResNorm Current eigenvalues (eV)
 ------------------------------------------------------------------------------
      0    0      1     1.37e-01   10.3268   
      1    0      2     4.04e-02   8.0874   
      2    0      3     1.86e-02   7.0288   
      3    0      4     3.24e-02   5.7654   
      4    0      5     1.15e-02   4.7469   
      5    0      6     1.83e-03   4.4703   
      6    0      7     5.08e-04   4.4236   
      7    0      8     1.28e-04   4.4126   
      8    0      9     8.48e-05   4.4078   
      9    0      10    2.74e-05   4.4051   
      10   1      11    7.35e-06   4.4052*  

     Davidson procedure converged

 EOMEE transition 1/B3u
 Total energy = -384.61734503 a.u.  Excitation energy = 4.4052 eV.
 R0^2 = 0.0000  R1^2 = 0.8924  R2^2 = 0.1076  Res^2 = 7.35e-06
 Conv-d = yes

 Amplitude    Transitions between orbitals
 -0.4528       2 (B1u) A                 ->    2 (B2g) A                  
 -0.4528       2 (B1u) B                 ->    2 (B2g) B                  
  0.4057       1 (Au) A                  ->    2 (B3g) A                  
  0.4057       1 (Au) B                  ->    2 (B3g) B                  
 -0.1922       1 (Au) A                  ->    3 (B3g) A                  
 -0.1922       1 (Au) B                  ->    3 (B3g) B                  
 -0.1268       1 (Au) A                  ->    4 (B3g) A                  
 -0.1268       1 (Au) B                  ->    4 (B3g) B                  

              Summary of significant orbitals:

               Number  Type             Irrep      Energy
               34      Occ  Alpha       1 (Au)     -0.2883
               33      Occ  Alpha       2 (B1u)     -0.3202
               34      Occ  Beta        1 (Au)     -0.2883
               33      Occ  Beta        2 (B1u)     -0.3202
               42      Vir  Alpha       2 (B2g)      0.0753
               45      Vir  Alpha       2 (B3g)      0.0991
               47      Vir  Alpha       3 (B3g)      0.1183
               63      Vir  Alpha       4 (B3g)      0.1951
               42      Vir  Beta        2 (B2g)      0.0753
               45      Vir  Beta        2 (B3g)      0.0991
               47      Vir  Beta        3 (B3g)      0.1183
               63      Vir  Beta        4 (B3g)      0.1951


Running a double precision version
      EOM-CCSD/MP2 left amplitudes will be solved using Davidson.
        Amplitudes will be solved using MOM  algorithm.
     Hard-coded thresholds: 
     LinDepThresh=1.00e-15  NormThresh=1.00e-06  ReorthogonThresh=1.00e-02

      Roots     MaxVec    MaxIter   Precond   Conv      Shift    
      1         120       60        1         1.00e-05  0.00e+00  
 ------------------------------------------------------------------------------
      Iter ConvRoots NVecs ResNorm Current eigenvalues (eV)
 ------------------------------------------------------------------------------
      0    0      1     6.50e-03   4.4052   
      1    0      2     1.18e-03   4.4047   
      2    0      3     7.37e-05   4.4047   
      3    0      4     1.02e-05   4.4047   
      4    1      5     1.76e-06   4.4047*  

     Davidson procedure converged

Running a double precision version
           EOM amplitude response will be solved using DIIS.
           Start     Size      MaxIter   EConv     ZConv     
           3         7         100       1.00e-06  1.00e-06  
 ------------------------------------------------------------------------------
            Enorm      Zdiff       Comment
 ------------------------------------------------------------------------------
     1     9.79e-02   5.77e-02     
     2     3.48e-02   2.07e-02     
     3     1.68e-02   7.82e-03     
     4     4.58e-03   6.19e-03     Switched to DIIS steps.
     5     2.00e-03   9.78e-04     
     6     7.73e-04   3.27e-04     
     7     3.04e-04   6.10e-05     
     8     1.40e-04   1.53e-05     
     9     4.96e-05   5.91e-06     
    10     2.08e-05   1.05e-06     
    11     6.88e-06   6.49e-08     
    12     2.93e-06   2.23e-07     
    13     1.10e-06   1.66e-07     
    14     4.93e-07   9.33e-08     
 ------------------------------------------------------------------------------
                                   Amplitude response converged.

           Orbital response amplitudes will be solved using DIIS.
           Start     Size      MaxIter   EConv     LConv     
           3         7         100       1.00e-06  1.00e-06  
 ------------------------------------------------------------------------------
            Enorm      Ldiff       Comment
 ------------------------------------------------------------------------------
     1     4.93e-02   1.12e-02     
     2     1.47e-02   4.32e-03     
     3     7.41e-03   2.15e-03     
     4     3.66e-03   2.91e-04     Switched to DIIS steps.
     5     1.37e-03   3.74e-04     
     6     3.45e-04   2.24e-04     
     7     6.98e-05   5.85e-05     
     8     3.15e-05   9.35e-06     
     9     2.66e-06   8.07e-07     
    10     4.99e-07   2.96e-07     
 ------------------------------------------------------------------------------
                                   Orbital response converged.

 Excited state properties for  EOMEE-CCSD transition 1/B3u
 Relaxed dipole moment (a.u.): 0.000000 (X 0.000000, Y 0.000000, Z 0.000000)
 Relaxed R-squared (a.u.): 1291.460426 (XX 859.927287, YY 382.687206, ZZ 48.845933)
 Gauge origin (a.u.): (0.000000, 0.000000, 0.000000)
 Relaxed angular momentum (a.u.) against gauge origin: 
 (X 0.000000i, Y 0.000000i, Z 0.000000i)
 Traces of the OPDMs: AA 34.000000, BB 34.000000

           EOM Polarizability response will be solved using DIIS.
           Start     Size      MaxIter   EConv     XConv     
           3         7         100       1.00e-06  1.00e-06  
Performing DIIS for the x-component of dRdy
 ------------------------------------------------------------------------------
            Enorm      Xdiff       Comment
 ------------------------------------------------------------------------------
     1     2.38e+00   2.18e+00     
     2     2.13e+00   2.08e+00     
     3     1.53e+00   1.47e+00     
     4     6.63e-01   3.83e+00     Switched to DIIS steps.
     5     2.50e-01   1.30e+00     
     6     9.32e-02   4.92e-01     
     7     4.48e-02   1.79e-02     
     8     2.15e-02   6.02e-02     
     9     9.76e-03   1.06e-02     
    10     6.75e-03   1.89e-03     
    11     4.08e-03   1.44e-03     
    12     2.71e-03   1.06e-03     
    13     1.52e-03   1.58e-03     
    14     1.09e-03   4.03e-04     
    15     5.98e-04   6.02e-04     
    16     3.65e-04   3.45e-04     
    17     2.26e-04   1.02e-04     
    18     1.18e-04   1.21e-04     
    19     4.86e-05   1.10e-04     
    20     2.39e-05   2.39e-05     
    21     1.40e-05   8.69e-06     
    22     7.47e-06   3.33e-07     
    23     2.54e-06   5.79e-06     
    24     1.16e-06   5.24e-07     
    25     6.61e-07   9.08e-07     
 ------------------------------------------------------------------------------
                                   Polarizability X-amplitude response conv
Performing DIIS for the y-component of dRdy
 ------------------------------------------------------------------------------
            Enorm      Xdiff       Comment
 ------------------------------------------------------------------------------
     1     1.12e+00   1.04e+00     
     2     8.67e-01   8.28e-01     
     3     6.05e-01   5.71e-01     
     4     1.68e-01   1.32e+00     Switched to DIIS steps.
     5     6.83e-02   2.86e-01     
     6     2.46e-02   6.37e-02     
     7     1.21e-02   1.15e-03     
     8     7.25e-03   1.09e-02     
     9     3.64e-03   1.64e-03     
    10     2.30e-03   1.21e-04     
    11     1.33e-03   2.43e-04     
    12     7.61e-04   3.06e-04     
    13     4.56e-04   3.22e-04     
    14     2.86e-04   8.35e-05     
    15     1.40e-04   1.37e-04     
    16     7.41e-05   9.41e-05     
    17     4.05e-05   3.43e-05     
    18     2.77e-05   1.75e-05     
    19     1.69e-05   1.09e-05     
    20     9.91e-06   8.70e-06     
    21     5.05e-06   2.72e-06     
    22     2.77e-06   1.85e-06     
    23     1.01e-06   3.26e-07     
    24     4.91e-07   5.44e-07     
 ------------------------------------------------------------------------------
                                   Polarizability X-amplitude response conv
Performing DIIS for the z-component of dRdy
 ------------------------------------------------------------------------------
            Enorm      Xdiff       Comment
 ------------------------------------------------------------------------------
     1     7.92e-01   7.27e-01     
     2     6.01e-01   5.68e-01     
     3     4.16e-01   3.81e-01     
     4     1.71e-01   8.11e-01     Switched to DIIS steps.
     5     9.80e-02   2.46e-01     
     6     4.09e-02   1.66e-01     
     7     2.21e-02   4.14e-02     
     8     1.25e-02   2.59e-02     
     9     4.43e-03   6.74e-03     
    10     2.60e-03   1.29e-03     
    11     1.34e-03   6.47e-04     
    12     7.24e-04   6.83e-04     
    13     3.21e-04   4.36e-05     
    14     1.67e-04   8.74e-05     
    15     8.07e-05   6.02e-06     
    16     4.51e-05   1.43e-05     
    17     2.63e-05   1.99e-05     
    18     1.38e-05   2.25e-05     
    19     6.98e-06   1.59e-05     
    20     4.25e-06   6.90e-06     
    21     2.22e-06   4.66e-06     
    22     1.37e-06   9.31e-07     
    23     7.31e-07   5.44e-07     
 ------------------------------------------------------------------------------
                                   Polarizability X-amplitude response conv

           EOM Polarizability response will be solved using DIIS.
           Start     Size      MaxIter   EConv     XConv     
           3         7         100       1.00e-06  1.00e-06  
Performing DIIS for the x-component of dLdy
 ------------------------------------------------------------------------------
            Enorm      Xdiff       Comment
 ------------------------------------------------------------------------------
     1     2.59e+00   2.34e+00     
     2     2.00e+00   1.88e+00     
     3     1.38e+00   1.26e+00     
     4     6.70e-01   2.70e+00     Switched to DIIS steps.
     5     3.53e-01   8.86e-01     
     6     1.07e-01   7.56e-01     
     7     4.45e-02   7.39e-02     
     8     2.44e-02   5.53e-02     
     9     1.14e-02   7.57e-03     
    10     7.35e-03   6.47e-04     
    11     4.31e-03   3.76e-04     
    12     2.95e-03   8.49e-04     
    13     1.63e-03   1.01e-03     
    14     1.11e-03   1.33e-04     
    15     6.11e-04   3.77e-04     
    16     4.19e-04   5.09e-05     
    17     2.43e-04   9.05e-05     
    18     1.15e-04   1.63e-04     
    19     5.24e-05   5.98e-05     
    20     3.04e-05   2.18e-09     
    21     1.98e-05   1.11e-05     
    22     1.27e-05   6.75e-06     
    23     8.72e-06   1.34e-06     
    24     5.19e-06   1.16e-06     
    25     2.36e-06   7.44e-07     
    26     1.20e-06   1.48e-06     
    27     6.64e-07   1.22e-06     
    28     3.37e-07   9.47e-07     
 ------------------------------------------------------------------------------
                                   Polarizability tX-amplitude response con
Performing DIIS for the y-component of dLdy
 ------------------------------------------------------------------------------
            Enorm      Xdiff       Comment
 ------------------------------------------------------------------------------
     1     1.63e+00   1.53e+00     
     2     9.43e-01   8.73e-01     
     3     5.76e-01   5.00e-01     
     4     2.14e-01   7.26e-01     Switched to DIIS steps.
     5     8.15e-02   2.27e-01     
     6     3.40e-02   7.84e-02     
     7     1.23e-02   1.78e-02     
     8     6.80e-03   8.44e-03     
     9     3.11e-03   4.68e-04     
    10     1.93e-03   2.29e-04     
    11     8.98e-04   2.69e-05     
    12     4.91e-04   5.79e-05     
    13     2.56e-04   1.01e-04     
    14     1.44e-04   7.06e-05     
    15     8.50e-05   3.55e-05     
    16     4.91e-05   2.44e-05     
    17     2.19e-05   1.01e-05     
    18     9.99e-06   4.43e-06     
    19     4.43e-06   1.09e-06     
    20     1.98e-06   6.42e-07     
    21     1.13e-06   3.96e-07     
    22     6.29e-07   6.64e-07     
 ------------------------------------------------------------------------------
                                   Polarizability tX-amplitude response con
Performing DIIS for the z-component of dLdy
 ------------------------------------------------------------------------------
            Enorm      Xdiff       Comment
 ------------------------------------------------------------------------------
     1     1.24e+00   1.16e+00     
     2     7.33e-01   6.58e-01     
     3     4.67e-01   3.86e-01     
     4     2.11e-01   6.03e-01     Switched to DIIS steps.
     5     9.77e-02   2.76e-01     
     6     5.74e-02   1.00e-01     
     7     2.67e-02   7.41e-02     
     8     1.58e-02   1.92e-02     
     9     6.85e-03   7.73e-03     
    10     3.64e-03   3.39e-03     
    11     1.59e-03   2.00e-04     
    12     9.27e-04   4.88e-04     
    13     4.78e-04   5.43e-05     
    14     2.27e-04   1.34e-04     
    15     1.28e-04   4.06e-05     
    16     6.02e-05   6.67e-05     
    17     3.15e-05   3.66e-05     
    18     1.66e-05   2.16e-05     
    19     9.69e-06   9.01e-06     
    20     4.83e-06   5.60e-06     
    21     2.79e-06   1.69e-06     
    22     1.62e-06   9.82e-07     
    23     7.28e-07   8.97e-07     
 ------------------------------------------------------------------------------
                                   Polarizability tX-amplitude response con

           CCSD Polarizability response will be solved using DIIS.
           Start     Size      MaxIter   EConv     XConv     
           3         7         100       1.00e-06  1.00e-06  
Performing DIIS for the x-component of dZdy
 ------------------------------------------------------------------------------
            Enorm      Xdiff       Comment
 ------------------------------------------------------------------------------
     1     9.21e-01   8.02e-01     
     2     4.70e-01   4.26e-01     
     3     2.43e-01   2.13e-01     
     4     4.93e-02   2.22e-01     Switched to DIIS steps.
     5     1.87e-02   1.95e-02     
     6     6.35e-03   8.97e-03     
     7     2.48e-03   1.59e-03     
     8     1.01e-03   4.77e-04     
     9     3.84e-04   1.49e-04     
    10     2.12e-04   2.42e-05     
    11     1.04e-04   4.88e-06     
    12     5.06e-05   1.43e-06     
    13     1.72e-05   4.22e-07     
    14     6.84e-06   6.95e-07     
    15     2.67e-06   7.17e-07     
    16     1.31e-06   4.17e-07     
    17     6.89e-07   2.81e-07     
 ------------------------------------------------------------------------------
                                   Polarizability X-amplitude response conv
Performing DIIS for the y-component of dZdy
 ------------------------------------------------------------------------------
            Enorm      Xdiff       Comment
 ------------------------------------------------------------------------------
     1     9.35e-01   8.90e-01     
     2     4.96e-01   4.72e-01     
     3     2.73e-01   2.54e-01     
     4     4.30e-02   3.00e-01     Switched to DIIS steps.
     5     1.91e-02   2.01e-02     
     6     6.36e-03   7.67e-03     
     7     2.19e-03   1.46e-03     
     8     1.06e-03   4.02e-04     
     9     4.57e-04   9.42e-05     
    10     1.93e-04   5.11e-05     
    11     5.12e-05   1.63e-06     
    12     1.75e-05   5.12e-06     
    13     6.39e-06   2.34e-06     
    14     2.83e-06   2.36e-06     
    15     1.37e-06   1.49e-06     
    16     5.43e-07   6.53e-07     
 ------------------------------------------------------------------------------
                                   Polarizability X-amplitude response conv
Performing DIIS for the z-component of dZdy
 ------------------------------------------------------------------------------
            Enorm      Xdiff       Comment
 ------------------------------------------------------------------------------
     1     6.37e-01   6.11e-01     
     2     3.26e-01   3.06e-01     
     3     1.75e-01   1.59e-01     
     4     2.65e-02   1.76e-01     Switched to DIIS steps.
     5     6.68e-03   1.40e-02     
     6     3.04e-03   1.42e-03     
     7     8.48e-04   5.66e-04     
     8     2.72e-04   1.31e-04     
     9     1.09e-04   2.17e-05     
    10     4.74e-05   4.12e-06     
    11     1.37e-05   1.60e-06     
    12     4.71e-06   6.30e-07     
    13     1.99e-06   4.58e-07     
    14     7.64e-07   5.21e-07     
 ------------------------------------------------------------------------------
                                   Polarizability X-amplitude response conv

Static polarizability with asymmetric derivative approach

 Polarizability Tensor ALPHA_IJ, I,J=X,Y,Z (a.u.):
 ------------------------------------------------------------------------------
        195.11520481   -0.00000000   -0.00000000
         -0.00000000  121.47413100   -0.00000000
         -0.00000000   -0.00000000   70.32041542
 ------------------------------------------------------------------------------
 Isotropic polarizability: 1/3 * (a_xx + a_yy + a_zz)
 Isotropic polarizability in a.u. = 128.96991707
 Anisotropic polarizability: SQRT(0.5*((a_xx-a_yy)^2 + (a_yy-a_zz)^2 + (a_zz-a_xx)^2))
 Anisotropic polarizability in a.u. = 108.65875443
 ------------------------------------------------------------------------------
 EOMEE-CCSD calculation:   CPU 71984.06 s  wall 8430.25 s

 Total ccman2 time:   CPU 84526.84 s  wall 9982.94 s

 
 --------------------------------------------------------------
             Orbital Energies (a.u.) and Symmetries
 --------------------------------------------------------------
 
 Alpha MOs, Restricted
 -- Occupied --                  
-11.249 -11.248 -11.244 -11.244 -11.244 -11.243 -11.243 -11.243
  1 Ag    1 B2u   1 B3u   2 Ag    1 B1g   2 B2u   2 B3u   3 Ag                 
-11.242 -11.242  -1.181  -1.113  -1.055  -1.013  -0.984  -0.858
  2 B1g   3 B2u   4 Ag    3 B3u   4 B2u   5 Ag    3 B1g   4 B3u                
 -0.839  -0.815  -0.710  -0.702  -0.680  -0.626  -0.614  -0.586
  5 B2u   6 Ag    4 B1g   5 B3u   7 Ag    6 B2u   8 Ag    6 B3u                
 -0.585  -0.565  -0.534  -0.527  -0.490  -0.479  -0.449  -0.387
  5 B1g   7 B2u   1 B1u   7 B3u   6 B1g   9 Ag    1 B2g   1 B3g                
 -0.320  -0.288
  2 B1u   1 Au                                                                 
 -- Virtual --                   
  0.035   0.037   0.039   0.051   0.053   0.067   0.074   0.075
 10 Ag    8 B3u   8 B2u   7 B1g  11 Ag    9 B2u   9 B3u   2 B2g                
  0.093   0.099   0.099   0.110   0.118   0.124   0.132   0.133
  8 B1g   3 B1u   2 B3g  12 Ag    3 B3g  10 B3u  10 B2u   4 B1u                
  0.138   0.145   0.149   0.150   0.153   0.154   0.158   0.165
  3 B2g  13 Ag   11 B2u  11 B3u   9 B1g   2 Au   14 Ag   12 B2u                
  0.166   0.168   0.188   0.194   0.195   0.195   0.201   0.207
 15 Ag   12 B3u  10 B1g  13 B2u   4 B3g   5 B1u  16 Ag   13 B3u                
  0.211   0.213   0.215   0.222   0.246   0.249   0.261   0.274
 11 B1g   4 B2g   6 B1u   3 Au   12 B1g  17 Ag    5 B3g  14 B2u                
  0.281   0.287   0.297   0.303   0.309   0.311   0.324   0.343
 14 B3u   4 Au   18 Ag   15 B3u  15 B2u  19 Ag   16 B2u  20 Ag                 
  0.345   0.346   0.346   0.355   0.356   0.367   0.367   0.377
 13 B1g  16 B3u  17 B2u  17 B3u  18 B2u   6 B3g   5 B2g  21 Ag                 
  0.384   0.390   0.396   0.400   0.403   0.410   0.412   0.441
 14 B1g  19 B2u   7 B1u  15 B1g  18 B3u  22 Ag   16 B1g  19 B3u                
  0.443   0.450   0.457   0.462   0.467   0.469   0.479   0.503
  7 B3g  20 B2u  23 Ag   17 B1g   5 Au    8 B1u  21 B2u   6 B2g                
  0.507   0.518   0.520   0.536   0.551   0.556   0.557   0.566
 20 B3u  18 B1g  24 Ag   25 Ag    9 B1u   8 B3g   6 Au   21 B3u                
  0.567   0.584   0.594   0.609   0.637   0.646   0.647   0.647
 22 B2u  26 Ag    7 B2g  23 B2u  22 B3u  27 Ag   10 B1u  19 B1g                
  0.649   0.649   0.654   0.671   0.679   0.681   0.684   0.688
 24 B2u   8 B2g  23 B3u   9 B3g  25 B2u  28 Ag   24 B3u  29 Ag                 
  0.693   0.698   0.707   0.714   0.716   0.728   0.729   0.735
 20 B1g  26 B2u  21 B1g  27 B2u  25 B3u  26 B3u  11 B1u  22 B1g                
  0.738   0.742   0.757   0.765   0.776   0.776   0.782   0.784
 30 Ag    7 Au   23 B1g  31 Ag   10 B3g  24 B1g  28 B2u  27 B3u                
  0.792   0.818   0.856   0.859   0.869   0.871   0.889   0.894
 25 B1g   9 B2g  29 B2u  12 B1u  28 B3u  32 Ag    8 Au   30 B2u                
  0.909   0.917   0.922   0.926   0.932   0.936   0.945   0.948
 10 B2g  33 Ag   13 B1u  29 B3u   9 Au   26 B1g  31 B2u  11 B3g                
  0.953   0.962   0.972   0.976   1.010   1.012   1.012   1.013
 12 B3g  14 B1u  11 B2g  10 Au   13 B3g  32 B2u  15 B1u  27 B1g                
  1.022   1.060   1.064   1.066   1.079   1.086   1.107   1.116
 34 Ag   30 B3u  28 B1g  12 B2g  33 B2u  29 B1g  14 B3g  11 Au                 
  1.142   1.169   1.187   1.203   1.233   1.243   1.260   1.279
 35 Ag   31 B3u  13 B2g  34 B2u  12 Au   16 B1u  36 Ag   32 B3u                
  1.293   1.295   1.342   1.351   1.434   1.467   1.475   1.494
 30 B1g  35 B2u  36 B2u  15 B3g  37 Ag   13 Au   31 B1g  33 B3u                
  1.506   1.518   1.531   1.535   1.536   1.551   1.564   1.590
 17 B1u  14 B2g  34 B3u  38 Ag   16 B3g  37 B2u  32 B1g  39 Ag                 
  1.605   1.610   1.620   1.622   1.636   1.638   1.639   1.653
 35 B3u  38 B2u  33 B1g  40 Ag   18 B1u  39 B2u  41 Ag   36 B3u                
  1.666   1.669   1.699   1.748   1.749   1.761   1.762   1.791
 15 B2g  34 B1g  17 B3g  14 Au   16 B2g  19 B1u  42 Ag   37 B3u                
  1.794   1.794   1.796   1.799   1.835   1.848   1.854   1.893
 35 B1g  43 Ag   18 B3g  38 B3u  40 B2u  15 Au   20 B1u  44 Ag                 
  1.909   1.911   1.947   1.953   1.958   1.972   1.973   1.977
 39 B3u  36 B1g  40 B3u  45 Ag   19 B3g  16 Au   41 B2u  17 B2g                
  1.983   2.015   2.055   2.061   2.083   2.084   2.087   2.087
 42 B2u  37 B1g  46 Ag   43 B2u  38 B1g  41 B3u  47 Ag   44 B2u                
  2.098   2.110   2.117   2.125   2.147   2.149   2.189   2.192
 42 B3u  18 B2g  48 Ag   21 B1u  17 Au   39 B1g  20 B3g  22 B1u                
  2.232   2.264   2.266   2.267   2.285   2.290   2.301   2.308
 19 B2g  18 Au   45 B2u  49 Ag   21 B3g  40 B1g  43 B3u  46 B2u                
  2.335   2.338   2.360   2.371   2.379   2.395   2.411   2.417
 23 B1u  41 B1g  47 B2u  44 B3u  42 B1g  50 Ag   20 B2g  48 B2u                
  2.440   2.440   2.503   2.528   2.533   2.572   2.605   2.698
 51 Ag   45 B3u  49 B2u  19 Au   22 B3g  46 B3u  43 B1g  23 B3g                
  2.718   2.723   2.754   2.808   2.838   2.840   2.853   2.951
 47 B3u  20 Au   52 Ag   53 Ag   44 B1g  50 B2u  48 B3u  45 B1g                
  2.953   2.966   3.043   3.049   3.068   3.116   3.200   3.216
 51 B2u  49 B3u  54 Ag   46 B1g  52 B2u  55 Ag   50 B3u  47 B1g                
  3.249   3.369   3.377   3.403   3.529   3.669   3.680   3.867
 53 B2u  48 B1g  56 Ag   54 B2u  51 B3u  57 Ag   55 B2u  56 B2u                
  3.881   4.539   4.762
 49 B1g  50 B1g  57 B2u                                                        
 
 Beta MOs, Restricted
 -- Occupied --                  
-11.249 -11.248 -11.244 -11.244 -11.244 -11.243 -11.243 -11.243
  1 Ag    1 B2u   1 B3u   2 Ag    1 B1g   2 B2u   2 B3u   3 Ag                 
-11.242 -11.242  -1.181  -1.113  -1.055  -1.013  -0.984  -0.858
  2 B1g   3 B2u   4 Ag    3 B3u   4 B2u   5 Ag    3 B1g   4 B3u                
 -0.839  -0.815  -0.710  -0.702  -0.680  -0.626  -0.614  -0.586
  5 B2u   6 Ag    4 B1g   5 B3u   7 Ag    6 B2u   8 Ag    6 B3u                
 -0.585  -0.565  -0.534  -0.527  -0.490  -0.479  -0.449  -0.387
  5 B1g   7 B2u   1 B1u   7 B3u   6 B1g   9 Ag    1 B2g   1 B3g                
 -0.320  -0.288
  2 B1u   1 Au                                                                 
 -- Virtual --                   
  0.035   0.037   0.039   0.051   0.053   0.067   0.074   0.075
 10 Ag    8 B3u   8 B2u   7 B1g  11 Ag    9 B2u   9 B3u   2 B2g                
  0.093   0.099   0.099   0.110   0.118   0.124   0.132   0.133
  8 B1g   3 B1u   2 B3g  12 Ag    3 B3g  10 B3u  10 B2u   4 B1u                
  0.138   0.145   0.149   0.150   0.153   0.154   0.158   0.165
  3 B2g  13 Ag   11 B2u  11 B3u   9 B1g   2 Au   14 Ag   12 B2u                
  0.166   0.168   0.188   0.194   0.195   0.195   0.201   0.207
 15 Ag   12 B3u  10 B1g  13 B2u   4 B3g   5 B1u  16 Ag   13 B3u                
  0.211   0.213   0.215   0.222   0.246   0.249   0.261   0.274
 11 B1g   4 B2g   6 B1u   3 Au   12 B1g  17 Ag    5 B3g  14 B2u                
  0.281   0.287   0.297   0.303   0.309   0.311   0.324   0.343
 14 B3u   4 Au   18 Ag   15 B3u  15 B2u  19 Ag   16 B2u  20 Ag                 
  0.345   0.346   0.346   0.355   0.356   0.367   0.367   0.377
 13 B1g  16 B3u  17 B2u  17 B3u  18 B2u   6 B3g   5 B2g  21 Ag                 
  0.384   0.390   0.396   0.400   0.403   0.410   0.412   0.441
 14 B1g  19 B2u   7 B1u  15 B1g  18 B3u  22 Ag   16 B1g  19 B3u                
  0.443   0.450   0.457   0.462   0.467   0.469   0.479   0.503
  7 B3g  20 B2u  23 Ag   17 B1g   5 Au    8 B1u  21 B2u   6 B2g                
  0.507   0.518   0.520   0.536   0.551   0.556   0.557   0.566
 20 B3u  18 B1g  24 Ag   25 Ag    9 B1u   8 B3g   6 Au   21 B3u                
  0.567   0.584   0.594   0.609   0.637   0.646   0.647   0.647
 22 B2u  26 Ag    7 B2g  23 B2u  22 B3u  27 Ag   10 B1u  19 B1g                
  0.649   0.649   0.654   0.671   0.679   0.681   0.684   0.688
 24 B2u   8 B2g  23 B3u   9 B3g  25 B2u  28 Ag   24 B3u  29 Ag                 
  0.693   0.698   0.707   0.714   0.716   0.728   0.729   0.735
 20 B1g  26 B2u  21 B1g  27 B2u  25 B3u  26 B3u  11 B1u  22 B1g                
  0.738   0.742   0.757   0.765   0.776   0.776   0.782   0.784
 30 Ag    7 Au   23 B1g  31 Ag   10 B3g  24 B1g  28 B2u  27 B3u                
  0.792   0.818   0.856   0.859   0.869   0.871   0.889   0.894
 25 B1g   9 B2g  29 B2u  12 B1u  28 B3u  32 Ag    8 Au   30 B2u                
  0.909   0.917   0.922   0.926   0.932   0.936   0.945   0.948
 10 B2g  33 Ag   13 B1u  29 B3u   9 Au   26 B1g  31 B2u  11 B3g                
  0.953   0.962   0.972   0.976   1.010   1.012   1.012   1.013
 12 B3g  14 B1u  11 B2g  10 Au   13 B3g  32 B2u  15 B1u  27 B1g                
  1.022   1.060   1.064   1.066   1.079   1.086   1.107   1.116
 34 Ag   30 B3u  28 B1g  12 B2g  33 B2u  29 B1g  14 B3g  11 Au                 
  1.142   1.169   1.187   1.203   1.233   1.243   1.260   1.279
 35 Ag   31 B3u  13 B2g  34 B2u  12 Au   16 B1u  36 Ag   32 B3u                
  1.293   1.295   1.342   1.351   1.434   1.467   1.475   1.494
 30 B1g  35 B2u  36 B2u  15 B3g  37 Ag   13 Au   31 B1g  33 B3u                
  1.506   1.518   1.531   1.535   1.536   1.551   1.564   1.590
 17 B1u  14 B2g  34 B3u  38 Ag   16 B3g  37 B2u  32 B1g  39 Ag                 
  1.605   1.610   1.620   1.622   1.636   1.638   1.639   1.653
 35 B3u  38 B2u  33 B1g  40 Ag   18 B1u  39 B2u  41 Ag   36 B3u                
  1.666   1.669   1.699   1.748   1.749   1.761   1.762   1.791
 15 B2g  34 B1g  17 B3g  14 Au   16 B2g  19 B1u  42 Ag   37 B3u                
  1.794   1.794   1.796   1.799   1.835   1.848   1.854   1.893
 35 B1g  43 Ag   18 B3g  38 B3u  40 B2u  15 Au   20 B1u  44 Ag                 
  1.909   1.911   1.947   1.953   1.958   1.972   1.973   1.977
 39 B3u  36 B1g  40 B3u  45 Ag   19 B3g  16 Au   41 B2u  17 B2g                
  1.983   2.015   2.055   2.061   2.083   2.084   2.087   2.087
 42 B2u  37 B1g  46 Ag   43 B2u  38 B1g  41 B3u  47 Ag   44 B2u                
  2.098   2.110   2.117   2.125   2.147   2.149   2.189   2.192
 42 B3u  18 B2g  48 Ag   21 B1u  17 Au   39 B1g  20 B3g  22 B1u                
  2.232   2.264   2.266   2.267   2.285   2.290   2.301   2.308
 19 B2g  18 Au   45 B2u  49 Ag   21 B3g  40 B1g  43 B3u  46 B2u                
  2.335   2.338   2.360   2.371   2.379   2.395   2.411   2.417
 23 B1u  41 B1g  47 B2u  44 B3u  42 B1g  50 Ag   20 B2g  48 B2u                
  2.440   2.440   2.503   2.528   2.533   2.572   2.605   2.698
 51 Ag   45 B3u  49 B2u  19 Au   22 B3g  46 B3u  43 B1g  23 B3g                
  2.718   2.723   2.754   2.808   2.838   2.840   2.853   2.951
 47 B3u  20 Au   52 Ag   53 Ag   44 B1g  50 B2u  48 B3u  45 B1g                
  2.953   2.966   3.043   3.049   3.068   3.116   3.200   3.216
 51 B2u  49 B3u  54 Ag   46 B1g  52 B2u  55 Ag   50 B3u  47 B1g                
  3.249   3.369   3.377   3.403   3.529   3.669   3.680   3.867
 53 B2u  48 B1g  56 Ag   54 B2u  51 B3u  57 Ag   55 B2u  56 B2u                
  3.881   4.539   4.762
 49 B1g  50 B1g  57 B2u                                                        
 --------------------------------------------------------------
 
          Ground-State Mulliken Net Atomic Charges

     Atom                 Charge (a.u.)
  ----------------------------------------
      1 C                     0.411403
      2 C                     0.411404
      3 C                     0.515133
      4 C                     0.410058
      5 C                     0.410063
      6 C                     0.515133
      7 C                     0.515133
      8 C                     0.411403
      9 C                     0.411404
     10 C                     0.515133
     11 H                    -0.493940
     12 H                    -0.493940
     13 H                    -0.637627
     14 H                    -0.637627
     15 H                    -0.637627
     16 H                    -0.493940
     17 H                    -0.493940
     18 H                    -0.637627
  ----------------------------------------
  Sum of atomic charges =     0.000000

 -----------------------------------------------------------------
                    Cartesian Multipole Moments
 -----------------------------------------------------------------
    Charge (ESU x 10^10)
                -0.0000
    Dipole Moment (Debye)
         X       0.0000      Y      -0.0000      Z      -0.0000
       Tot       0.0000
    Quadrupole Moments (Debye-Ang)
        XX     -52.9527     XY      -0.0000     YY     -53.1625
        XZ      -0.0000     YZ      -0.0000     ZZ     -65.5029
    Octopole Moments (Debye-Ang^2)
       XXX       0.0000    XXY       0.0000    XYY       0.0000
       YYY      -0.0000    XXZ      -0.0000    XYZ       0.0000
       YYZ       0.0000    XZZ       0.0000    YZZ      -0.0000
       ZZZ      -0.0000
    Hexadecapole Moments (Debye-Ang^3)
      XXXX   -1116.6082   XXXY       0.0000   XXYY    -275.3391
      XYYY      -0.0000   YYYY    -497.9568   XXXZ       0.0000
      XXYZ       0.0000   XYYZ      -0.0000   YYYZ       0.0000
      XXZZ    -245.3939   XYZZ       0.0000   YYZZ    -115.9758
      XZZZ      -0.0000   YZZZ      -0.0000   ZZZZ     -80.4824
 -----------------------------------------------------------------
Archival summary:
1\1\Knecht20\SP\ProcedureUnspecified\BasisUnspecified\108\mscheure\SunApr1920:24:012020SunApr1920:24:012020\0\\#,ProcedureUnspecified,BasisUnspecified,\\0,1\C\C,1,1.41484\H,2,1.08315,1,118.865\C,2,1.37694,1,120.705,3,-180,0\H,4,1.08157,2,119.963,1,180,0\C,4,1.41121,2,120.309,1,-0,0\H,6,1.08157,4,119.728,2,-180,0\C,6,1.37694,4,120.309,2,-0,0\H,8,1.08315,6,120.429,4,180,0\C,8,1.41484,6,120.705,4,0,0\C,10,1.41484,8,122.029,6,180,0\H,11,1.08315,10,118.865,8,-0,0\C,11,1.37694,10,120.705,8,180,0\H,13,1.08157,11,119.963,10,-180,0\C,13,1.41121,11,120.309,10,0,0\H,15,1.08157,13,119.728,11,180,0\C,15,1.37694,13,120.309,11,0,0\H,17,1.08315,15,120.429,13,-180,0\\HF=-383.393702\\@

 Total job time:  10193.90s(wall), 85249.12s(cpu) 
 Sun Apr 19 20:24:01 2020

        *************************************************************
        *                                                           *
        *  Thank you very much for using Q-Chem.  Have a nice day.  *
        *                                                           *
        *************************************************************


