                  Welcome to Q-Chem
     A Quantum Leap Into The Future Of Chemistry


 Q-Chem 5.3 (devel), Q-Chem, Inc., Pleasanton, CA (2020)

 Yihan Shao,  Zhengting Gan,  E. Epifanovsky,  A. T. B. Gilbert,  M. Wormit,  
 J. Kussmann,  A. W. Lange,  A. Behn,  Jia Deng,  Xintian Feng,  D. Ghosh,  
 M. Goldey,  P. R. Horn,  L. D. Jacobson,  I. Kaliman,  T. Kus,  A. Landau,  
 Jie Liu,  E. I. Proynov,  R. M. Richard,  R. P. Steele,  E. J. Sundstrom,  
 H. L. Woodcock III,  P. M. Zimmerman,  D. Zuev,  B. Alam,  B. Albrecht,  
 E. Alguire,  S. A. Baeppler,  D. Barton,  Z. Benda,  Y. A. Bernard,  
 E. J. Berquist,  K. B. Bravaya,  H. Burton,  K. Carter-Fenk,  D. Casanova,  
 Chun-Min Chang,  Yunqing Chen,  A. Chien,  K. D. Closser,  M. P. Coons,  
 S. Coriani,  S. Dasgupta,  A. L. Dempwolff,  M. Diedenhofen,  Hainam Do,  
 R. G. Edgar,  Po-Tung Fang,  S. Faraji,  S. Fatehi,  Qingguo Feng,  
 J. Fosso-Tande,  J. Gayvert,  Qinghui Ge,  A. Ghysels,  G. Gidofalvi,  
 J. Gomes,  J. Gonthier,  A. Gunina,  D. Hait,  M. W. D. Hanson-Heine,  
 P. H. P. Harbach,  A. W. Hauser,  M. F. Herbst,  J. E. Herr,  
 E. G. Hohenstein,  Z. C. Holden,  Kerwin Hui,  B. C. Huynh,  T.-C. Jagau,  
 Hyunjun Ji,  B. Kaduk,  K. Khistyaev,  Jaehoon Kim,  P. Klunzinger,  K. Koh,  
 D. Kosenkov,  L. Koulias,  T. Kowalczyk,  C. M. Krauter,  A. Kunitsa,  
 Ka Un Lao,  A. Laurent,  K. V. Lawler,  Joonho Lee,  D. Lefrancois,  
 S. Lehtola,  D. S. Levine,  Yi-Pei Li,  You-Sheng Lin,  Fenglai Liu,  
 Kuan-Yu Liu,  E. Livshits,  M. Loipersberger,  A. Luenser,  P. Manohar,  
 E. Mansoor,  S. F. Manzer,  Shan-Ping Mao,  Yuezhi Mao,  N. Mardirossian,  
 A. V. Marenich,  T. Markovich,  L. A. Martinez-Martinez,  S. A. Maurer,  
 N. J. Mayhall,  S. C. McKenzie,  J.-M. Mewes,  P. Morgante,  A. F. Morrison,  
 J. W. Mullinax,  K. Nanda,  T. S. Nguyen-Beck,  R. Olivares-Amaya,  
 J. A. Parkhill,  S. K. Paul,  F. Pavosevic,  Zheng Pei,  T. M. Perrine,  
 F. Plasser,  P. Pokhilko,  S. Prager,  A. Prociuk,  E. Ramos,  B. Rana,  
 D. R. Rehn,  F. Rob,  M. Scheurer,  M. Schneider,  N. Sergueev,  
 S. M. Sharada,  S. Sharma,  D. W. Small,  T. Stauch,  C. J. Stein,  
 T. Stein,  Yu-Chuan Su,  S. P. Veccham,  Zhen Tao,  A. J. W. Thom,  
 A. Tkatchenko,  T. Tsuchimochi,  N. M. Tubman,  L. Vogt,  M. L. Vidal,  
 O. Vydrov,  M. A. Watson,  J. Wenzel,  M. de Wergifosse,  T. A. Wesolowski,  
 A. White,  J. Witte,  A. Yamada,  Jun Yang,  K. Yao,  S. Yeganeh,  
 S. R. Yost,  Zhi-Qiang You,  A. Zech,  Igor Ying Zhang,  Xing Zhang,  
 Yan Zhao,  Ying Zhu,  B. R. Brooks,  G. K. L. Chan,  C. J. Cramer,  
 M. S. Gordon,  W. J. Hehre,  A. Klamt,  M. W. Schmidt,  C. D. Sherrill,  
 D. G. Truhlar,  A. Aspuru-Guzik,  R. Baer,  A. T. Bell,  N. A. Besley,  
 Jeng-Da Chai,  A. E. DePrince, III,  R. A. DiStasio Jr.,  A. Dreuw,  
 B. D. Dunietz,  T. R. Furlani,  Chao-Ping Hsu,  Yousung Jung,  Jing Kong,  
 D. S. Lambrecht,  WanZhen Liang,  C. Ochsenfeld,  V. A. Rassolov,  
 L. V. Slipchenko,  J. E. Subotnik,  T. Van Voorhis,  J. M. Herbert,  
 A. I. Krylov,  P. M. W. Gill,  M. Head-Gordon

 Contributors to earlier versions of Q-Chem not listed above: 
 R. D. Adamson,  B. Austin,  J. Baker,  G. J. O. Beran,  K. Brandhorst,  
 S. T. Brown,  E. F. C. Byrd,  A. K. Chakraborty,  C.-L. Cheng,  
 Siu Hung Chien,  D. M. Chipman,  D. L. Crittenden,  H. Dachsel,  
 R. J. Doerksen,  A. D. Dutoi,  L. Fusti-Molnar,  W. A. Goddard III,  
 A. Golubeva-Zadorozhnaya,  S. R. Gwaltney,  G. Hawkins,  A. Heyden,  
 S. Hirata,  G. Kedziora,  F. J. Keil,  C. Kelley,  Jihan Kim,  R. A. King,  
 R. Z. Khaliullin,  P. P. Korambath,  W. Kurlancheek,  A. M. Lee,  M. S. Lee,  
 S. V. Levchenko,  Ching Yeh Lin,  D. Liotard,  R. C. Lochan,  I. Lotan,  
 P. E. Maslen,  N. Nair,  D. P. O'Neill,  D. Neuhauser,  E. Neuscamman,  
 C. M. Oana,  R. Olson,  B. Peters,  R. Peverati,  P. A. Pieniazek,  
 Y. M. Rhee,  J. Ritchie,  M. A. Rohrdanz,  E. Rosta,  N. J. Russ,  
 H. F. Schaefer III,  N. E. Schultz,  N. Shenvi,  A. C. Simmonett,  A. Sodt,  
 D. Stuck,  K. S. Thanthiriwatte,  V. Vanovschi,  Tao Wang,  A. Warshel,  
 C. F. Williams,  Q. Wu,  X. Xu,  W. Zhang

 Please cite Q-Chem as follows:
 Y. Shao et al., Mol. Phys. 113, 184-215 (2015)
 DOI: 10.1080/00268976.2014.952696

 Q-Chem 5.3.0 for Intel X86 EM64T Linux

 Parts of Q-Chem use Armadillo 9.800.1 (Horizon Scraper).
 http://arma.sourceforge.net/

 Q-Chem begins on Sun Apr 19 17:44:28 2020  

Host: 
0

     Scratch files written to /lscratch/mscheure/naphthalene_adc2x_347636.Meister/qchem679//
Processing $rem in /export/home/mscheure/data/qchem_ccman2_pe/qchem/config/preferences:
Processing $rem in /export/home/mscheure/.qchemrc:

Checking the input file for inconsistencies... 	...done.

--------------------------------------------------------------
User input:
--------------------------------------------------------------
$molecule
 0 1
C	2.4263501231	-0.7056037689	0.0000000000
C	2.4263501231	0.7056037689	0.0000000000
C	1.2376214393	1.4004977720	0.0000000000
C	0.0000000000	0.7148848658	0.0000000000
C	0.0000000000	-0.7148848658	0.0000000000
C	1.2376214393	-1.4004977720	0.0000000000
C	-1.2376214393	-1.4004977720	0.0000000000
C	-2.4263501231	-0.7056037689	0.0000000000
C	-2.4263501231	0.7056037689	0.0000000000
C	-1.2376214393	1.4004977720	0.0000000000
H	3.3655793057	-1.2419330757	0.0000000000
H	3.3655793057	1.2419330757	0.0000000000
H	1.2353527952	2.4836421100	0.0000000000
H	1.2353527952	-2.4836421100	0.0000000000
H	-1.2353527952	-2.4836421100	0.0000000000
H	-3.3655793057	-1.2419330757	0.0000000000
H	-3.3655793057	1.2419330757	0.0000000000
H	-1.2353527952	2.4836421100	0.0000000000
$end

$rem
   METHOD            adc(2)-x
   BASIS aug-cc-pvdz
   ee_singlets 	    [0,0,0,0,0,0,0,1]
   mem_total 490000
   mem_static 2000
   threads 24
   symmetry         false
   adc_davidson_maxiter 140
   thresh 14
$end
--------------------------------------------------------------
 ----------------------------------------------------------------
             Standard Nuclear Orientation (Angstroms)
    I     Atom           X                Y                Z
 ----------------------------------------------------------------
    1      C       2.4263501231    -0.7056037689     0.0000000000
    2      C       2.4263501231     0.7056037689    -0.0000000000
    3      C       1.2376214393     1.4004977720    -0.0000000000
    4      C      -0.0000000000     0.7148848658    -0.0000000000
    5      C       0.0000000000    -0.7148848658     0.0000000000
    6      C       1.2376214393    -1.4004977720     0.0000000000
    7      C      -1.2376214393    -1.4004977720     0.0000000000
    8      C      -2.4263501231    -0.7056037689     0.0000000000
    9      C      -2.4263501231     0.7056037689    -0.0000000000
   10      C      -1.2376214393     1.4004977720    -0.0000000000
   11      H       3.3655793057    -1.2419330757     0.0000000000
   12      H       3.3655793057     1.2419330757    -0.0000000000
   13      H       1.2353527952     2.4836421100    -0.0000000000
   14      H       1.2353527952    -2.4836421100     0.0000000000
   15      H      -1.2353527952    -2.4836421100     0.0000000000
   16      H      -3.3655793057    -1.2419330757     0.0000000000
   17      H      -3.3655793057     1.2419330757    -0.0000000000
   18      H      -1.2353527952     2.4836421100    -0.0000000000
 ----------------------------------------------------------------
 Molecular Point Group                 D2h   NOp =  8
 Largest Abelian Subgroup              D2h   NOp =  8
 Nuclear Repulsion Energy =         458.55411536 hartrees
 There are       34 alpha and       34 beta electrons
 Requested basis set is aug-cc-pVDZ
 There are 130 shells and 302 basis functions
 Total memory of 490000 MB is distributed as follows: 
   MEM_STATIC is set to 2000 MB
   QALLOC/CCMAN JOB total memory use is  488000 MB
 Warning: actual memory use might exceed 490000 MB

 Total QAlloc Memory Limit 490000 MB
 Mega-Array Size      1956 MB
 MEM_STATIC part      2000 MB
 A cutoff of  1.0D-14 yielded   8427 shell pairs
 There are     45651 function pairs (     51973 Cartesian)
 Smallest overlap matrix eigenvalue = 8.20E-07
 Linear dependence detected in AO basis
 Tighter screening thresholds may be required for diffuse basis sets
 Use S2THRESH > 14 and THRESH = 14 in case of SCF convergence issues
 Number of orthogonalized atomic orbitals = 301
 Maximum deviation from orthogonality = 1.495E-10

 Scale SEOQF with 1.000000e-01/1.000000e-01/1.000000e-01

 Standard Electronic Orientation quadrupole field applied
 Nucleus-field energy     =     0.0000000151 hartrees
 Guess from superposition of atomic densities
 Warning:  Energy on first SCF cycle will be non-variational
 SAD guess density has 68.000000 electrons
 A restricted Hartree-Fock SCF calculation will be
 performed using Pulay DIIS extrapolation
 SCF converges when DIIS error is below 1.0E-08
 using 24 threads for integral computing
 -------------------------------------------------------
 OpenMP Integral computing Module                
 Release: version 2.0, May 2017, Q-Chem Inc. Pleasanton 
 -------------------------------------------------------
 ---------------------------------------
  Cycle       Energy         DIIS Error
 ---------------------------------------
    1    -388.0208911350      3.89E-02
    2    -383.2849239982      2.45E-03
    3    -383.3853386428      6.47E-04
    4    -383.3929932520      2.21E-04
    5    -383.3936578904      3.55E-05
    6    -383.3936925915      1.56E-05
    7    -383.3937001051      5.79E-06
    8    -383.3937019961      2.68E-06
    9    -383.3937023048      8.60E-07
   10    -383.3937023344      1.73E-07
   11    -383.3937023357      2.84E-08
   12    -383.3937023357      4.62E-09 Convergence criterion met
 ---------------------------------------
 SCF time:  CPU 665.27 s  wall 27.72 s
 SCF   energy in the final basis set = -383.39370234
 Total energy in the final basis set = -383.39370234
================================================================================
|                                                                              |
|                                 A D C  M A N                                 |
|                                                                              |
 ------------------------------------------------------------------------------ 
|                                                                              |
| Components:                                                                  |
|                                                                              |
| - libvmm - 1.3-trunk                                                         |
|   Authors:                                                                   |
|   Evgeny Epifanovsky, Ilya Kaliman                                           |
|                                                                              |
| - libtensor - 2.5-trunk                                                      |
|   Authors:                                                                   |
|   Evgeny Epifanovsky, Michael Wormit, Dmitry Zuev, Sam Manzer,               |
|   Ilya Kaliman                                                               |
|                                                                              |
| - libwfa - 1.1-trunk                                                         |
|   Authors:                                                                   |
|   Felix Plasser, Stefanie Mewes (Baeppler), Benjamin Thomitzni,              |
|   Michael Wormit, Feng Chen, Anna I. Krylov, Pavel Pokhilko                  |
|                                                                              |
| - libadc - 1.1-trunk                                                         |
|   Authors:                                                                   |
|   Michael Wormit, Adrian L. Dempwolff, Philipp H. P. Harbach,                |
|   Caroline Krauter, Dirk Rehn, Matthias Schneider, Jan Wenzel                |
|                                                                              |
| - adcman - 2.6-trunk                                                         |
|   Authors:                                                                   |
|   Michael Wormit, Adrian L. Dempwolff, Philipp H. P. Harbach,                |
|   Caroline Krauter, Daniel Lefrancois, Jan-Michael Mewes, Dirk Rehn,         |
|   Matthias Schneider, Jan Wenzel, Andreas Dreuw                              |
|                                                                              |
| Authors of earlier versions of ADCMAN:                                       |
| Andreas Dreuw, Jan Hendrik Starcke, Dirk Rehn, Michael Wormit                |
|                                                                              |
================================================================================

 
 Alpha MOs, Restricted
 -- Occupied --                  
-11.249 -11.248 -11.244 -11.244 -11.244 -11.243 -11.243 -11.243
  1 Ag    1 B2u   1 B3u   2 Ag    1 B1g   2 B2u   2 B3u   3 Ag                 
-11.242 -11.242  -1.181  -1.113  -1.055  -1.013  -0.984  -0.858
  2 B1g   3 B2u   4 Ag    3 B3u   4 B2u   5 Ag    3 B1g   4 B3u                
 -0.839  -0.815  -0.710  -0.702  -0.680  -0.626  -0.614  -0.586
  5 B2u   6 Ag    4 B1g   5 B3u   7 Ag    6 B2u   8 Ag    6 B3u                
 -0.585  -0.565  -0.534  -0.527  -0.490  -0.479  -0.449  -0.387
  5 B1g   7 B2u   1 B1u   7 B3u   6 B1g   9 Ag    1 B2g   1 B3g                
 -0.320  -0.288
  2 B1u   1 Au                                                                 
 -- Virtual --                   
  0.035   0.037   0.039   0.051   0.053   0.067   0.074   0.075
 10 Ag    8 B3u   8 B2u   7 B1g  11 Ag    9 B2u   9 B3u   2 B2g                
  0.093   0.099   0.099   0.110   0.118   0.124   0.132   0.133
  8 B1g   3 B1u   2 B3g  12 Ag    3 B3g  10 B3u  10 B2u   4 B1u                
  0.138   0.145   0.149   0.150   0.153   0.154   0.158   0.165
  3 B2g  13 Ag   11 B2u  11 B3u   9 B1g   2 Au   14 Ag   12 B2u                
  0.166   0.168   0.188   0.194   0.195   0.195   0.201   0.207
 15 Ag   12 B3u  10 B1g  13 B2u   4 B3g   5 B1u  16 Ag   13 B3u                
  0.211   0.213   0.215   0.222   0.246   0.249   0.261   0.274
 11 B1g   4 B2g   6 B1u   3 Au   12 B1g  17 Ag    5 B3g  14 B2u                
  0.281   0.287   0.297   0.303   0.309   0.311   0.324   0.343
 14 B3u   4 Au   18 Ag   15 B3u  15 B2u  19 Ag   16 B2u  20 Ag                 
  0.345   0.346   0.346   0.355   0.356   0.367   0.367   0.377
 13 B1g  16 B3u  17 B2u  17 B3u  18 B2u   6 B3g   5 B2g  21 Ag                 
  0.384   0.390   0.396   0.400   0.403   0.410   0.412   0.441
 14 B1g  19 B2u   7 B1u  15 B1g  18 B3u  22 Ag   16 B1g  19 B3u                
  0.443   0.450   0.457   0.462   0.467   0.469   0.479   0.503
  7 B3g  20 B2u  23 Ag   17 B1g   5 Au    8 B1u  21 B2u   6 B2g                
  0.507   0.518   0.520   0.536   0.551   0.556   0.557   0.566
 20 B3u  18 B1g  24 Ag   25 Ag    9 B1u   8 B3g   6 Au   21 B3u                
  0.567   0.584   0.594   0.609   0.637   0.646   0.647   0.647
 22 B2u  26 Ag    7 B2g  23 B2u  22 B3u  27 Ag   10 B1u  19 B1g                
  0.649   0.649   0.654   0.671   0.679   0.681   0.684   0.688
 24 B2u   8 B2g  23 B3u   9 B3g  25 B2u  28 Ag   24 B3u  29 Ag                 
  0.693   0.698   0.707   0.714   0.716   0.728   0.729   0.735
 20 B1g  26 B2u  21 B1g  27 B2u  25 B3u  26 B3u  11 B1u  22 B1g                
  0.738   0.742   0.757   0.765   0.776   0.776   0.782   0.784
 30 Ag    7 Au   23 B1g  31 Ag   10 B3g  24 B1g  28 B2u  27 B3u                
  0.792   0.818   0.856   0.859   0.869   0.871   0.889   0.894
 25 B1g   9 B2g  29 B2u  12 B1u  28 B3u  32 Ag    8 Au   30 B2u                
  0.909   0.917   0.922   0.926   0.932   0.936   0.945   0.948
 10 B2g  33 Ag   13 B1u  29 B3u   9 Au   26 B1g  31 B2u  11 B3g                
  0.953   0.962   0.972   0.976   1.010   1.012   1.012   1.013
 12 B3g  14 B1u  11 B2g  10 Au   13 B3g  32 B2u  15 B1u  27 B1g                
  1.022   1.060   1.064   1.066   1.079   1.086   1.107   1.116
 34 Ag   30 B3u  28 B1g  12 B2g  33 B2u  29 B1g  14 B3g  11 Au                 
  1.142   1.169   1.187   1.203   1.233   1.243   1.260   1.279
 35 Ag   31 B3u  13 B2g  34 B2u  12 Au   16 B1u  36 Ag   32 B3u                
  1.293   1.295   1.342   1.351   1.434   1.467   1.475   1.494
 30 B1g  35 B2u  36 B2u  15 B3g  37 Ag   13 Au   31 B1g  33 B3u                
  1.506   1.518   1.531   1.535   1.536   1.551   1.564   1.590
 17 B1u  14 B2g  34 B3u  38 Ag   16 B3g  37 B2u  32 B1g  39 Ag                 
  1.605   1.610   1.620   1.622   1.636   1.638   1.639   1.653
 35 B3u  38 B2u  33 B1g  40 Ag   18 B1u  39 B2u  41 Ag   36 B3u                
  1.666   1.669   1.699   1.748   1.749   1.761   1.762   1.791
 15 B2g  34 B1g  17 B3g  14 Au   16 B2g  19 B1u  42 Ag   37 B3u                
  1.794   1.794   1.796   1.799   1.835   1.848   1.854   1.893
 35 B1g  43 Ag   18 B3g  38 B3u  40 B2u  15 Au   20 B1u  44 Ag                 
  1.909   1.911   1.947   1.953   1.958   1.972   1.973   1.977
 39 B3u  36 B1g  40 B3u  45 Ag   19 B3g  16 Au   41 B2u  17 B2g                
  1.983   2.015   2.055   2.061   2.083   2.084   2.087   2.087
 42 B2u  37 B1g  46 Ag   43 B2u  38 B1g  41 B3u  47 Ag   44 B2u                
  2.098   2.110   2.117   2.125   2.147   2.149   2.189   2.192
 42 B3u  18 B2g  48 Ag   21 B1u  17 Au   39 B1g  20 B3g  22 B1u                
  2.232   2.264   2.266   2.267   2.285   2.290   2.301   2.308
 19 B2g  18 Au   45 B2u  49 Ag   21 B3g  40 B1g  43 B3u  46 B2u                
  2.335   2.338   2.360   2.371   2.379   2.395   2.411   2.417
 23 B1u  41 B1g  47 B2u  44 B3u  42 B1g  50 Ag   20 B2g  48 B2u                
  2.440   2.440   2.503   2.528   2.533   2.572   2.605   2.698
 51 Ag   45 B3u  49 B2u  19 Au   22 B3g  46 B3u  43 B1g  23 B3g                
  2.718   2.723   2.754   2.808   2.838   2.840   2.853   2.951
 47 B3u  20 Au   52 Ag   53 Ag   44 B1g  50 B2u  48 B3u  45 B1g                
  2.953   2.966   3.043   3.049   3.068   3.116   3.200   3.216
 51 B2u  49 B3u  54 Ag   46 B1g  52 B2u  55 Ag   50 B3u  47 B1g                
  3.249   3.369   3.377   3.403   3.529   3.669   3.680   3.867
 53 B2u  48 B1g  56 Ag   54 B2u  51 B3u  57 Ag   55 B2u  56 B2u                
  3.881   4.539   4.762
 49 B1g  50 B1g  57 B2u                                                        
 
 Beta MOs, Restricted
 -- Occupied --                  
-11.249 -11.248 -11.244 -11.244 -11.244 -11.243 -11.243 -11.243
  1 Ag    1 B2u   1 B3u   2 Ag    1 B1g   2 B2u   2 B3u   3 Ag                 
-11.242 -11.242  -1.181  -1.113  -1.055  -1.013  -0.984  -0.858
  2 B1g   3 B2u   4 Ag    3 B3u   4 B2u   5 Ag    3 B1g   4 B3u                
 -0.839  -0.815  -0.710  -0.702  -0.680  -0.626  -0.614  -0.586
  5 B2u   6 Ag    4 B1g   5 B3u   7 Ag    6 B2u   8 Ag    6 B3u                
 -0.585  -0.565  -0.534  -0.527  -0.490  -0.479  -0.449  -0.387
  5 B1g   7 B2u   1 B1u   7 B3u   6 B1g   9 Ag    1 B2g   1 B3g                
 -0.320  -0.288
  2 B1u   1 Au                                                                 
 -- Virtual --                   
  0.035   0.037   0.039   0.051   0.053   0.067   0.074   0.075
 10 Ag    8 B3u   8 B2u   7 B1g  11 Ag    9 B2u   9 B3u   2 B2g                
  0.093   0.099   0.099   0.110   0.118   0.124   0.132   0.133
  8 B1g   3 B1u   2 B3g  12 Ag    3 B3g  10 B3u  10 B2u   4 B1u                
  0.138   0.145   0.149   0.150   0.153   0.154   0.158   0.165
  3 B2g  13 Ag   11 B2u  11 B3u   9 B1g   2 Au   14 Ag   12 B2u                
  0.166   0.168   0.188   0.194   0.195   0.195   0.201   0.207
 15 Ag   12 B3u  10 B1g  13 B2u   4 B3g   5 B1u  16 Ag   13 B3u                
  0.211   0.213   0.215   0.222   0.246   0.249   0.261   0.274
 11 B1g   4 B2g   6 B1u   3 Au   12 B1g  17 Ag    5 B3g  14 B2u                
  0.281   0.287   0.297   0.303   0.309   0.311   0.324   0.343
 14 B3u   4 Au   18 Ag   15 B3u  15 B2u  19 Ag   16 B2u  20 Ag                 
  0.345   0.346   0.346   0.355   0.356   0.367   0.367   0.377
 13 B1g  16 B3u  17 B2u  17 B3u  18 B2u   6 B3g   5 B2g  21 Ag                 
  0.384   0.390   0.396   0.400   0.403   0.410   0.412   0.441
 14 B1g  19 B2u   7 B1u  15 B1g  18 B3u  22 Ag   16 B1g  19 B3u                
  0.443   0.450   0.457   0.462   0.467   0.469   0.479   0.503
  7 B3g  20 B2u  23 Ag   17 B1g   5 Au    8 B1u  21 B2u   6 B2g                
  0.507   0.518   0.520   0.536   0.551   0.556   0.557   0.566
 20 B3u  18 B1g  24 Ag   25 Ag    9 B1u   8 B3g   6 Au   21 B3u                
  0.567   0.584   0.594   0.609   0.637   0.646   0.647   0.647
 22 B2u  26 Ag    7 B2g  23 B2u  22 B3u  27 Ag   10 B1u  19 B1g                
  0.649   0.649   0.654   0.671   0.679   0.681   0.684   0.688
 24 B2u   8 B2g  23 B3u   9 B3g  25 B2u  28 Ag   24 B3u  29 Ag                 
  0.693   0.698   0.707   0.714   0.716   0.728   0.729   0.735
 20 B1g  26 B2u  21 B1g  27 B2u  25 B3u  26 B3u  11 B1u  22 B1g                
  0.738   0.742   0.757   0.765   0.776   0.776   0.782   0.784
 30 Ag    7 Au   23 B1g  31 Ag   10 B3g  24 B1g  28 B2u  27 B3u                
  0.792   0.818   0.856   0.859   0.869   0.871   0.889   0.894
 25 B1g   9 B2g  29 B2u  12 B1u  28 B3u  32 Ag    8 Au   30 B2u                
  0.909   0.917   0.922   0.926   0.932   0.936   0.945   0.948
 10 B2g  33 Ag   13 B1u  29 B3u   9 Au   26 B1g  31 B2u  11 B3g                
  0.953   0.962   0.972   0.976   1.010   1.012   1.012   1.013
 12 B3g  14 B1u  11 B2g  10 Au   13 B3g  32 B2u  15 B1u  27 B1g                
  1.022   1.060   1.064   1.066   1.079   1.086   1.107   1.116
 34 Ag   30 B3u  28 B1g  12 B2g  33 B2u  29 B1g  14 B3g  11 Au                 
  1.142   1.169   1.187   1.203   1.233   1.243   1.260   1.279
 35 Ag   31 B3u  13 B2g  34 B2u  12 Au   16 B1u  36 Ag   32 B3u                
  1.293   1.295   1.342   1.351   1.434   1.467   1.475   1.494
 30 B1g  35 B2u  36 B2u  15 B3g  37 Ag   13 Au   31 B1g  33 B3u                
  1.506   1.518   1.531   1.535   1.536   1.551   1.564   1.590
 17 B1u  14 B2g  34 B3u  38 Ag   16 B3g  37 B2u  32 B1g  39 Ag                 
  1.605   1.610   1.620   1.622   1.636   1.638   1.639   1.653
 35 B3u  38 B2u  33 B1g  40 Ag   18 B1u  39 B2u  41 Ag   36 B3u                
  1.666   1.669   1.699   1.748   1.749   1.761   1.762   1.791
 15 B2g  34 B1g  17 B3g  14 Au   16 B2g  19 B1u  42 Ag   37 B3u                
  1.794   1.794   1.796   1.799   1.835   1.848   1.854   1.893
 35 B1g  43 Ag   18 B3g  38 B3u  40 B2u  15 Au   20 B1u  44 Ag                 
  1.909   1.911   1.947   1.953   1.958   1.972   1.973   1.977
 39 B3u  36 B1g  40 B3u  45 Ag   19 B3g  16 Au   41 B2u  17 B2g                
  1.983   2.015   2.055   2.061   2.083   2.084   2.087   2.087
 42 B2u  37 B1g  46 Ag   43 B2u  38 B1g  41 B3u  47 Ag   44 B2u                
  2.098   2.110   2.117   2.125   2.147   2.149   2.189   2.192
 42 B3u  18 B2g  48 Ag   21 B1u  17 Au   39 B1g  20 B3g  22 B1u                
  2.232   2.264   2.266   2.267   2.285   2.290   2.301   2.308
 19 B2g  18 Au   45 B2u  49 Ag   21 B3g  40 B1g  43 B3u  46 B2u                
  2.335   2.338   2.360   2.371   2.379   2.395   2.411   2.417
 23 B1u  41 B1g  47 B2u  44 B3u  42 B1g  50 Ag   20 B2g  48 B2u                
  2.440   2.440   2.503   2.528   2.533   2.572   2.605   2.698
 51 Ag   45 B3u  49 B2u  19 Au   22 B3g  46 B3u  43 B1g  23 B3g                
  2.718   2.723   2.754   2.808   2.838   2.840   2.853   2.951
 47 B3u  20 Au   52 Ag   53 Ag   44 B1g  50 B2u  48 B3u  45 B1g                
  2.953   2.966   3.043   3.049   3.068   3.116   3.200   3.216
 51 B2u  49 B3u  54 Ag   46 B1g  52 B2u  55 Ag   50 B3u  47 B1g                
  3.249   3.369   3.377   3.403   3.529   3.669   3.680   3.867
 53 B2u  48 B1g  56 Ag   54 B2u  51 B3u  57 Ag   55 B2u  56 B2u                
  3.881   4.539   4.762
 49 B1g  50 B1g  57 B2u                                                        

--------------------------------------------------------------------------------
                                   HF Summary                                   
--------------------------------------------------------------------------------
  Energy:                                                 -383.3937023357 a.u.
  Dip. moment [a.u.]:                  [   0.000000,    0.000000,   -0.000000]
  Total dipole [Debye]:                                               0.000000
  <r^2> [a.u.]:                        [ 857.945635,  381.406588,   49.232573]
  Total <r^2> [a.u.]:                                              1288.584795
--------------------------------------------------------------------------------

--------------------------------------------------------------------------------
                                 MP(2) Summary                                  
--------------------------------------------------------------------------------
  MP energy contribution:                                   -1.3720832177 a.u.
  Total energy:                                           -384.7657855534 a.u.
  Dip. moment [a.u.]:                  [  -0.000000,    0.000000,   -0.000000]
  Total dipole [Debye]:                                               0.000000
  <r^2> [a.u.]:                        [ 858.418495,  382.007582,   48.868081]
  Total <r^2> [a.u.]:                                              1289.294158
--------------------------------------------------------------------------------
  Starting Davidson for singlet states of irrep B3u ... 
--------------------------------------------------------------------------------
   It NVec Conv  Avg. Norm  Max. Norm  Conv. states           Remark
--------------------------------------------------------------------------------
         1    0  5.085e-01  5.085e-01  0.3612 n               Guess.
    1    2    0  3.782e-01  3.782e-01  0.2959 n               
    2    3    0  1.419e-01  1.419e-01  0.2101 n               
    3    4    0  1.186e-01  1.186e-01  0.1876 n               
    4    5    0  1.381e-01  1.381e-01  0.1593 n               
    5    2    0  6.843e-02  6.843e-02  0.1462 n               Subspace collapsed.
    6    3    0  7.759e-02  7.759e-02  0.1370 n               
    7    4    0  4.379e-02  4.379e-02  0.1296 n               
    8    5    0  2.672e-02  2.672e-02  0.1276 n               
    9    2    0  9.115e-03  9.115e-03  0.1272 n               Subspace collapsed.
   10    3    0  6.609e-03  6.609e-03  0.1271 n               
   11    4    0  2.985e-03  2.985e-03  0.1270 n               
   12    5    0  2.664e-03  2.664e-03  0.1270 n               
   13    2    0  1.235e-03  1.235e-03  0.1270 n               Subspace collapsed.
   14    3    0  1.190e-03  1.190e-03  0.1270 n               
   15    4    0  5.529e-04  5.529e-04  0.1270 n               
   16    5    0  5.543e-04  5.543e-04  0.1270 n               
   17    2    0  1.727e-04  1.727e-04  0.1270 n               Subspace collapsed.
   18    3    0  1.385e-04  1.385e-04  0.1270 n               
   19    4    0  6.200e-05  6.200e-05  0.1270 n               
   20    5    0  6.537e-05  6.537e-05  0.1270 n               
   21    2    0  3.104e-05  3.104e-05  0.1270 n               Subspace collapsed.
   22    3    0  3.010e-05  3.010e-05  0.1270 n               
   23    4    0  1.318e-05  1.318e-05  0.1270 n               
   24    5    0  1.390e-05  1.390e-05  0.1270 n               
   25    2    0  4.523e-06  4.523e-06  0.1270 n               Subspace collapsed.
   26    3    0  3.686e-06  3.686e-06  0.1270 n               
   27    4    0  1.546e-06  1.546e-06  0.1270 n               
   28    5    0  1.704e-06  1.704e-06  0.1270 n               
   29    2    1  8.183e-07  8.183e-07  0.1270 y               Converged.
--------------------------------------------------------------------------------
  Davidson Summary: 
 ------------------------------------------------------------
  State  0: excitation energy =   0.1270 a.u.   (converged)
 ------------------------------------------------------------


--------------------------------------------------------------------------------
                             Excited State Summary
--------------------------------------------------------------------------------
--------------------------------------------------------------------------------

  Excited state 1 (singlet, B3u)                                   [converged]
  ----------------------------------------------------------------------------
  Term symbol:  1 (1) B3u                                   R^2 =  8.18318e-07

  Total energy:                                           -384.6387840732 a.u.
  Excitation energy:                                               3.455886 eV

  Osc. strength:                                                      0.000149
  Trans. dip. moment [a.u.]:           [   0.042009,    0.000000,   -0.000000]
  <i|r^2|0> [a.u.]:                    [   0.000000,    0.000000,    0.000000]


  V1^2 = 0.8022, V2^2 = 0.1978

  Important amplitudes:
       occ i       occ j       vir a        vir b           v   
    -------------------------------------------------------------
     2 (B1u) A                2 (B2g) A                   0.4322
     1 (Au ) A                2 (B3g) A                   0.3811
    -------------------------------------------------------------
  ----------------------------------------------------------------------------


--------------------------------------------------------------------------------
  Time of ADC calculation:  CPU 6745.27 s  wall 527.31 s
================================================================================
 
 --------------------------------------------------------------
             Orbital Energies (a.u.) and Symmetries
 --------------------------------------------------------------
 
 Alpha MOs, Restricted
 -- Occupied --                  
-11.249 -11.248 -11.244 -11.244 -11.244 -11.243 -11.243 -11.243
  1 Ag    1 B2u   1 B3u   2 Ag    1 B1g   2 B2u   2 B3u   3 Ag                 
-11.242 -11.242  -1.181  -1.113  -1.055  -1.013  -0.984  -0.858
  2 B1g   3 B2u   4 Ag    3 B3u   4 B2u   5 Ag    3 B1g   4 B3u                
 -0.839  -0.815  -0.710  -0.702  -0.680  -0.626  -0.614  -0.586
  5 B2u   6 Ag    4 B1g   5 B3u   7 Ag    6 B2u   8 Ag    6 B3u                
 -0.585  -0.565  -0.534  -0.527  -0.490  -0.479  -0.449  -0.387
  5 B1g   7 B2u   1 B1u   7 B3u   6 B1g   9 Ag    1 B2g   1 B3g                
 -0.320  -0.288
  2 B1u   1 Au                                                                 
 -- Virtual --                   
  0.035   0.037   0.039   0.051   0.053   0.067   0.074   0.075
 10 Ag    8 B3u   8 B2u   7 B1g  11 Ag    9 B2u   9 B3u   2 B2g                
  0.093   0.099   0.099   0.110   0.118   0.124   0.132   0.133
  8 B1g   3 B1u   2 B3g  12 Ag    3 B3g  10 B3u  10 B2u   4 B1u                
  0.138   0.145   0.149   0.150   0.153   0.154   0.158   0.165
  3 B2g  13 Ag   11 B2u  11 B3u   9 B1g   2 Au   14 Ag   12 B2u                
  0.166   0.168   0.188   0.194   0.195   0.195   0.201   0.207
 15 Ag   12 B3u  10 B1g  13 B2u   4 B3g   5 B1u  16 Ag   13 B3u                
  0.211   0.213   0.215   0.222   0.246   0.249   0.261   0.274
 11 B1g   4 B2g   6 B1u   3 Au   12 B1g  17 Ag    5 B3g  14 B2u                
  0.281   0.287   0.297   0.303   0.309   0.311   0.324   0.343
 14 B3u   4 Au   18 Ag   15 B3u  15 B2u  19 Ag   16 B2u  20 Ag                 
  0.345   0.346   0.346   0.355   0.356   0.367   0.367   0.377
 13 B1g  16 B3u  17 B2u  17 B3u  18 B2u   6 B3g   5 B2g  21 Ag                 
  0.384   0.390   0.396   0.400   0.403   0.410   0.412   0.441
 14 B1g  19 B2u   7 B1u  15 B1g  18 B3u  22 Ag   16 B1g  19 B3u                
  0.443   0.450   0.457   0.462   0.467   0.469   0.479   0.503
  7 B3g  20 B2u  23 Ag   17 B1g   5 Au    8 B1u  21 B2u   6 B2g                
  0.507   0.518   0.520   0.536   0.551   0.556   0.557   0.566
 20 B3u  18 B1g  24 Ag   25 Ag    9 B1u   8 B3g   6 Au   21 B3u                
  0.567   0.584   0.594   0.609   0.637   0.646   0.647   0.647
 22 B2u  26 Ag    7 B2g  23 B2u  22 B3u  27 Ag   10 B1u  19 B1g                
  0.649   0.649   0.654   0.671   0.679   0.681   0.684   0.688
 24 B2u   8 B2g  23 B3u   9 B3g  25 B2u  28 Ag   24 B3u  29 Ag                 
  0.693   0.698   0.707   0.714   0.716   0.728   0.729   0.735
 20 B1g  26 B2u  21 B1g  27 B2u  25 B3u  26 B3u  11 B1u  22 B1g                
  0.738   0.742   0.757   0.765   0.776   0.776   0.782   0.784
 30 Ag    7 Au   23 B1g  31 Ag   10 B3g  24 B1g  28 B2u  27 B3u                
  0.792   0.818   0.856   0.859   0.869   0.871   0.889   0.894
 25 B1g   9 B2g  29 B2u  12 B1u  28 B3u  32 Ag    8 Au   30 B2u                
  0.909   0.917   0.922   0.926   0.932   0.936   0.945   0.948
 10 B2g  33 Ag   13 B1u  29 B3u   9 Au   26 B1g  31 B2u  11 B3g                
  0.953   0.962   0.972   0.976   1.010   1.012   1.012   1.013
 12 B3g  14 B1u  11 B2g  10 Au   13 B3g  32 B2u  15 B1u  27 B1g                
  1.022   1.060   1.064   1.066   1.079   1.086   1.107   1.116
 34 Ag   30 B3u  28 B1g  12 B2g  33 B2u  29 B1g  14 B3g  11 Au                 
  1.142   1.169   1.187   1.203   1.233   1.243   1.260   1.279
 35 Ag   31 B3u  13 B2g  34 B2u  12 Au   16 B1u  36 Ag   32 B3u                
  1.293   1.295   1.342   1.351   1.434   1.467   1.475   1.494
 30 B1g  35 B2u  36 B2u  15 B3g  37 Ag   13 Au   31 B1g  33 B3u                
  1.506   1.518   1.531   1.535   1.536   1.551   1.564   1.590
 17 B1u  14 B2g  34 B3u  38 Ag   16 B3g  37 B2u  32 B1g  39 Ag                 
  1.605   1.610   1.620   1.622   1.636   1.638   1.639   1.653
 35 B3u  38 B2u  33 B1g  40 Ag   18 B1u  39 B2u  41 Ag   36 B3u                
  1.666   1.669   1.699   1.748   1.749   1.761   1.762   1.791
 15 B2g  34 B1g  17 B3g  14 Au   16 B2g  19 B1u  42 Ag   37 B3u                
  1.794   1.794   1.796   1.799   1.835   1.848   1.854   1.893
 35 B1g  43 Ag   18 B3g  38 B3u  40 B2u  15 Au   20 B1u  44 Ag                 
  1.909   1.911   1.947   1.953   1.958   1.972   1.973   1.977
 39 B3u  36 B1g  40 B3u  45 Ag   19 B3g  16 Au   41 B2u  17 B2g                
  1.983   2.015   2.055   2.061   2.083   2.084   2.087   2.087
 42 B2u  37 B1g  46 Ag   43 B2u  38 B1g  41 B3u  47 Ag   44 B2u                
  2.098   2.110   2.117   2.125   2.147   2.149   2.189   2.192
 42 B3u  18 B2g  48 Ag   21 B1u  17 Au   39 B1g  20 B3g  22 B1u                
  2.232   2.264   2.266   2.267   2.285   2.290   2.301   2.308
 19 B2g  18 Au   45 B2u  49 Ag   21 B3g  40 B1g  43 B3u  46 B2u                
  2.335   2.338   2.360   2.371   2.379   2.395   2.411   2.417
 23 B1u  41 B1g  47 B2u  44 B3u  42 B1g  50 Ag   20 B2g  48 B2u                
  2.440   2.440   2.503   2.528   2.533   2.572   2.605   2.698
 51 Ag   45 B3u  49 B2u  19 Au   22 B3g  46 B3u  43 B1g  23 B3g                
  2.718   2.723   2.754   2.808   2.838   2.840   2.853   2.951
 47 B3u  20 Au   52 Ag   53 Ag   44 B1g  50 B2u  48 B3u  45 B1g                
  2.953   2.966   3.043   3.049   3.068   3.116   3.200   3.216
 51 B2u  49 B3u  54 Ag   46 B1g  52 B2u  55 Ag   50 B3u  47 B1g                
  3.249   3.369   3.377   3.403   3.529   3.669   3.680   3.867
 53 B2u  48 B1g  56 Ag   54 B2u  51 B3u  57 Ag   55 B2u  56 B2u                
  3.881   4.539   4.762
 49 B1g  50 B1g  57 B2u                                                        
 
 Beta MOs, Restricted
 -- Occupied --                  
-11.249 -11.248 -11.244 -11.244 -11.244 -11.243 -11.243 -11.243
  1 Ag    1 B2u   1 B3u   2 Ag    1 B1g   2 B2u   2 B3u   3 Ag                 
-11.242 -11.242  -1.181  -1.113  -1.055  -1.013  -0.984  -0.858
  2 B1g   3 B2u   4 Ag    3 B3u   4 B2u   5 Ag    3 B1g   4 B3u                
 -0.839  -0.815  -0.710  -0.702  -0.680  -0.626  -0.614  -0.586
  5 B2u   6 Ag    4 B1g   5 B3u   7 Ag    6 B2u   8 Ag    6 B3u                
 -0.585  -0.565  -0.534  -0.527  -0.490  -0.479  -0.449  -0.387
  5 B1g   7 B2u   1 B1u   7 B3u   6 B1g   9 Ag    1 B2g   1 B3g                
 -0.320  -0.288
  2 B1u   1 Au                                                                 
 -- Virtual --                   
  0.035   0.037   0.039   0.051   0.053   0.067   0.074   0.075
 10 Ag    8 B3u   8 B2u   7 B1g  11 Ag    9 B2u   9 B3u   2 B2g                
  0.093   0.099   0.099   0.110   0.118   0.124   0.132   0.133
  8 B1g   3 B1u   2 B3g  12 Ag    3 B3g  10 B3u  10 B2u   4 B1u                
  0.138   0.145   0.149   0.150   0.153   0.154   0.158   0.165
  3 B2g  13 Ag   11 B2u  11 B3u   9 B1g   2 Au   14 Ag   12 B2u                
  0.166   0.168   0.188   0.194   0.195   0.195   0.201   0.207
 15 Ag   12 B3u  10 B1g  13 B2u   4 B3g   5 B1u  16 Ag   13 B3u                
  0.211   0.213   0.215   0.222   0.246   0.249   0.261   0.274
 11 B1g   4 B2g   6 B1u   3 Au   12 B1g  17 Ag    5 B3g  14 B2u                
  0.281   0.287   0.297   0.303   0.309   0.311   0.324   0.343
 14 B3u   4 Au   18 Ag   15 B3u  15 B2u  19 Ag   16 B2u  20 Ag                 
  0.345   0.346   0.346   0.355   0.356   0.367   0.367   0.377
 13 B1g  16 B3u  17 B2u  17 B3u  18 B2u   6 B3g   5 B2g  21 Ag                 
  0.384   0.390   0.396   0.400   0.403   0.410   0.412   0.441
 14 B1g  19 B2u   7 B1u  15 B1g  18 B3u  22 Ag   16 B1g  19 B3u                
  0.443   0.450   0.457   0.462   0.467   0.469   0.479   0.503
  7 B3g  20 B2u  23 Ag   17 B1g   5 Au    8 B1u  21 B2u   6 B2g                
  0.507   0.518   0.520   0.536   0.551   0.556   0.557   0.566
 20 B3u  18 B1g  24 Ag   25 Ag    9 B1u   8 B3g   6 Au   21 B3u                
  0.567   0.584   0.594   0.609   0.637   0.646   0.647   0.647
 22 B2u  26 Ag    7 B2g  23 B2u  22 B3u  27 Ag   10 B1u  19 B1g                
  0.649   0.649   0.654   0.671   0.679   0.681   0.684   0.688
 24 B2u   8 B2g  23 B3u   9 B3g  25 B2u  28 Ag   24 B3u  29 Ag                 
  0.693   0.698   0.707   0.714   0.716   0.728   0.729   0.735
 20 B1g  26 B2u  21 B1g  27 B2u  25 B3u  26 B3u  11 B1u  22 B1g                
  0.738   0.742   0.757   0.765   0.776   0.776   0.782   0.784
 30 Ag    7 Au   23 B1g  31 Ag   10 B3g  24 B1g  28 B2u  27 B3u                
  0.792   0.818   0.856   0.859   0.869   0.871   0.889   0.894
 25 B1g   9 B2g  29 B2u  12 B1u  28 B3u  32 Ag    8 Au   30 B2u                
  0.909   0.917   0.922   0.926   0.932   0.936   0.945   0.948
 10 B2g  33 Ag   13 B1u  29 B3u   9 Au   26 B1g  31 B2u  11 B3g                
  0.953   0.962   0.972   0.976   1.010   1.012   1.012   1.013
 12 B3g  14 B1u  11 B2g  10 Au   13 B3g  32 B2u  15 B1u  27 B1g                
  1.022   1.060   1.064   1.066   1.079   1.086   1.107   1.116
 34 Ag   30 B3u  28 B1g  12 B2g  33 B2u  29 B1g  14 B3g  11 Au                 
  1.142   1.169   1.187   1.203   1.233   1.243   1.260   1.279
 35 Ag   31 B3u  13 B2g  34 B2u  12 Au   16 B1u  36 Ag   32 B3u                
  1.293   1.295   1.342   1.351   1.434   1.467   1.475   1.494
 30 B1g  35 B2u  36 B2u  15 B3g  37 Ag   13 Au   31 B1g  33 B3u                
  1.506   1.518   1.531   1.535   1.536   1.551   1.564   1.590
 17 B1u  14 B2g  34 B3u  38 Ag   16 B3g  37 B2u  32 B1g  39 Ag                 
  1.605   1.610   1.620   1.622   1.636   1.638   1.639   1.653
 35 B3u  38 B2u  33 B1g  40 Ag   18 B1u  39 B2u  41 Ag   36 B3u                
  1.666   1.669   1.699   1.748   1.749   1.761   1.762   1.791
 15 B2g  34 B1g  17 B3g  14 Au   16 B2g  19 B1u  42 Ag   37 B3u                
  1.794   1.794   1.796   1.799   1.835   1.848   1.854   1.893
 35 B1g  43 Ag   18 B3g  38 B3u  40 B2u  15 Au   20 B1u  44 Ag                 
  1.909   1.911   1.947   1.953   1.958   1.972   1.973   1.977
 39 B3u  36 B1g  40 B3u  45 Ag   19 B3g  16 Au   41 B2u  17 B2g                
  1.983   2.015   2.055   2.061   2.083   2.084   2.087   2.087
 42 B2u  37 B1g  46 Ag   43 B2u  38 B1g  41 B3u  47 Ag   44 B2u                
  2.098   2.110   2.117   2.125   2.147   2.149   2.189   2.192
 42 B3u  18 B2g  48 Ag   21 B1u  17 Au   39 B1g  20 B3g  22 B1u                
  2.232   2.264   2.266   2.267   2.285   2.290   2.301   2.308
 19 B2g  18 Au   45 B2u  49 Ag   21 B3g  40 B1g  43 B3u  46 B2u                
  2.335   2.338   2.360   2.371   2.379   2.395   2.411   2.417
 23 B1u  41 B1g  47 B2u  44 B3u  42 B1g  50 Ag   20 B2g  48 B2u                
  2.440   2.440   2.503   2.528   2.533   2.572   2.605   2.698
 51 Ag   45 B3u  49 B2u  19 Au   22 B3g  46 B3u  43 B1g  23 B3g                
  2.718   2.723   2.754   2.808   2.838   2.840   2.853   2.951
 47 B3u  20 Au   52 Ag   53 Ag   44 B1g  50 B2u  48 B3u  45 B1g                
  2.953   2.966   3.043   3.049   3.068   3.116   3.200   3.216
 51 B2u  49 B3u  54 Ag   46 B1g  52 B2u  55 Ag   50 B3u  47 B1g                
  3.249   3.369   3.377   3.403   3.529   3.669   3.680   3.867
 53 B2u  48 B1g  56 Ag   54 B2u  51 B3u  57 Ag   55 B2u  56 B2u                
  3.881   4.539   4.762
 49 B1g  50 B1g  57 B2u                                                        
 --------------------------------------------------------------
 
          Ground-State Mulliken Net Atomic Charges

     Atom                 Charge (a.u.)
  ----------------------------------------
      1 C                     0.365981
      2 C                     0.365981
      3 C                     0.461624
      4 C                     0.459635
      5 C                     0.459635
      6 C                     0.461624
      7 C                     0.461624
      8 C                     0.365981
      9 C                     0.365981
     10 C                     0.461624
     11 H                    -0.463073
     12 H                    -0.463073
     13 H                    -0.594350
     14 H                    -0.594350
     15 H                    -0.594350
     16 H                    -0.463073
     17 H                    -0.463073
     18 H                    -0.594350
  ----------------------------------------
  Sum of atomic charges =     0.000000

 -----------------------------------------------------------------
                    Cartesian Multipole Moments
 -----------------------------------------------------------------
    Charge (ESU x 10^10)
                 0.0000
    Dipole Moment (Debye)
         X       0.0000      Y       0.0000      Z      -0.0000
       Tot       0.0000
    Quadrupole Moments (Debye-Ang)
        XX     -51.7939     XY       0.0000     YY     -51.9034
        XZ       0.0000     YZ       0.0000     ZZ     -66.2195
    Octopole Moments (Debye-Ang^2)
       XXX       0.0000    XXY      -0.0000    XYY      -0.0000
       YYY       0.0000    XXZ      -0.0000    XYZ       0.0000
       YYZ      -0.0000    XZZ      -0.0000    YZZ       0.0000
       ZZZ      -0.0000
    Hexadecapole Moments (Debye-Ang^3)
      XXXX   -1085.4753   XXXY       0.0000   XXYY    -269.2446
      XYYY      -0.0000   YYYY    -480.9327   XXXZ      -0.0000
      XXYZ      -0.0000   XYYZ      -0.0000   YYYZ       0.0000
      XXZZ    -247.4317   XYZZ       0.0000   YYZZ    -116.3769
      XZZZ       0.0000   YZZZ       0.0000   ZZZZ     -82.4149
 -----------------------------------------------------------------
Archival summary:
1\1\Knecht17\SP\HF\BasisUnspecified\108\mscheure\SunApr1917:57:472020SunApr1917:57:472020\0\\#,HF,BasisUnspecified,\\0,1\C\C,1,1.41484\H,2,1.08315,1,118.865\C,2,1.37694,1,120.705,3,180,0\H,4,1.08157,2,119.963,1,-180,0\C,4,1.41121,2,120.309,1,0,0\H,6,1.08157,4,119.728,2,180,0\C,6,1.37694,4,120.309,2,-0,0\H,8,1.08315,6,120.429,4,-180,0\C,8,1.41484,6,120.705,4,0,0\C,10,1.41484,8,122.029,6,-180,0\H,11,1.08315,10,118.865,8,-0,0\C,11,1.37694,10,120.705,8,180,0\H,13,1.08157,11,119.963,10,180,0\C,13,1.41121,11,120.309,10,-0,0\H,15,1.08157,13,119.728,11,-180,0\C,15,1.37694,13,120.309,11,0,0\H,17,1.08315,15,120.429,13,180,0\\HF=-383.393702\\@

 Total job time:  798.65s(wall), 7668.55s(cpu) 
 Sun Apr 19 17:57:47 2020

        *************************************************************
        *                                                           *
        *  Thank you very much for using Q-Chem.  Have a nice day.  *
        *                                                           *
        *************************************************************


