                  Welcome to Q-Chem
     A Quantum Leap Into The Future Of Chemistry


 Q-Chem 5.3 (devel), Q-Chem, Inc., Pleasanton, CA (2020)

 Yihan Shao,  Zhengting Gan,  E. Epifanovsky,  A. T. B. Gilbert,  M. Wormit,  
 J. Kussmann,  A. W. Lange,  A. Behn,  Jia Deng,  Xintian Feng,  D. Ghosh,  
 M. Goldey,  P. R. Horn,  L. D. Jacobson,  I. Kaliman,  T. Kus,  A. Landau,  
 Jie Liu,  E. I. Proynov,  R. M. Richard,  R. P. Steele,  E. J. Sundstrom,  
 H. L. Woodcock III,  P. M. Zimmerman,  D. Zuev,  B. Alam,  B. Albrecht,  
 E. Alguire,  S. A. Baeppler,  D. Barton,  Z. Benda,  Y. A. Bernard,  
 E. J. Berquist,  K. B. Bravaya,  H. Burton,  K. Carter-Fenk,  D. Casanova,  
 Chun-Min Chang,  Yunqing Chen,  A. Chien,  K. D. Closser,  M. P. Coons,  
 S. Coriani,  S. Dasgupta,  A. L. Dempwolff,  M. Diedenhofen,  Hainam Do,  
 R. G. Edgar,  Po-Tung Fang,  S. Faraji,  S. Fatehi,  Qingguo Feng,  
 J. Fosso-Tande,  J. Gayvert,  Qinghui Ge,  A. Ghysels,  G. Gidofalvi,  
 J. Gomes,  J. Gonthier,  A. Gunina,  D. Hait,  M. W. D. Hanson-Heine,  
 P. H. P. Harbach,  A. W. Hauser,  M. F. Herbst,  J. E. Herr,  
 E. G. Hohenstein,  Z. C. Holden,  Kerwin Hui,  B. C. Huynh,  T.-C. Jagau,  
 Hyunjun Ji,  B. Kaduk,  K. Khistyaev,  Jaehoon Kim,  P. Klunzinger,  K. Koh,  
 D. Kosenkov,  L. Koulias,  T. Kowalczyk,  C. M. Krauter,  A. Kunitsa,  
 Ka Un Lao,  A. Laurent,  K. V. Lawler,  Joonho Lee,  D. Lefrancois,  
 S. Lehtola,  D. S. Levine,  Yi-Pei Li,  You-Sheng Lin,  Fenglai Liu,  
 Kuan-Yu Liu,  E. Livshits,  M. Loipersberger,  A. Luenser,  P. Manohar,  
 E. Mansoor,  S. F. Manzer,  Shan-Ping Mao,  Yuezhi Mao,  N. Mardirossian,  
 A. V. Marenich,  T. Markovich,  L. A. Martinez-Martinez,  S. A. Maurer,  
 N. J. Mayhall,  S. C. McKenzie,  J.-M. Mewes,  P. Morgante,  A. F. Morrison,  
 J. W. Mullinax,  K. Nanda,  T. S. Nguyen-Beck,  R. Olivares-Amaya,  
 J. A. Parkhill,  S. K. Paul,  F. Pavosevic,  Zheng Pei,  T. M. Perrine,  
 F. Plasser,  P. Pokhilko,  S. Prager,  A. Prociuk,  E. Ramos,  B. Rana,  
 D. R. Rehn,  F. Rob,  M. Scheurer,  M. Schneider,  N. Sergueev,  
 S. M. Sharada,  S. Sharma,  D. W. Small,  T. Stauch,  C. J. Stein,  
 T. Stein,  Yu-Chuan Su,  S. P. Veccham,  Zhen Tao,  A. J. W. Thom,  
 A. Tkatchenko,  T. Tsuchimochi,  N. M. Tubman,  L. Vogt,  M. L. Vidal,  
 O. Vydrov,  M. A. Watson,  J. Wenzel,  M. de Wergifosse,  T. A. Wesolowski,  
 A. White,  J. Witte,  A. Yamada,  Jun Yang,  K. Yao,  S. Yeganeh,  
 S. R. Yost,  Zhi-Qiang You,  A. Zech,  Igor Ying Zhang,  Xing Zhang,  
 Yan Zhao,  Ying Zhu,  B. R. Brooks,  G. K. L. Chan,  C. J. Cramer,  
 M. S. Gordon,  W. J. Hehre,  A. Klamt,  M. W. Schmidt,  C. D. Sherrill,  
 D. G. Truhlar,  A. Aspuru-Guzik,  R. Baer,  A. T. Bell,  N. A. Besley,  
 Jeng-Da Chai,  A. E. DePrince, III,  R. A. DiStasio Jr.,  A. Dreuw,  
 B. D. Dunietz,  T. R. Furlani,  Chao-Ping Hsu,  Yousung Jung,  Jing Kong,  
 D. S. Lambrecht,  WanZhen Liang,  C. Ochsenfeld,  V. A. Rassolov,  
 L. V. Slipchenko,  J. E. Subotnik,  T. Van Voorhis,  J. M. Herbert,  
 A. I. Krylov,  P. M. W. Gill,  M. Head-Gordon

 Contributors to earlier versions of Q-Chem not listed above: 
 R. D. Adamson,  B. Austin,  J. Baker,  G. J. O. Beran,  K. Brandhorst,  
 S. T. Brown,  E. F. C. Byrd,  A. K. Chakraborty,  C.-L. Cheng,  
 Siu Hung Chien,  D. M. Chipman,  D. L. Crittenden,  H. Dachsel,  
 R. J. Doerksen,  A. D. Dutoi,  L. Fusti-Molnar,  W. A. Goddard III,  
 A. Golubeva-Zadorozhnaya,  S. R. Gwaltney,  G. Hawkins,  A. Heyden,  
 S. Hirata,  G. Kedziora,  F. J. Keil,  C. Kelley,  Jihan Kim,  R. A. King,  
 R. Z. Khaliullin,  P. P. Korambath,  W. Kurlancheek,  A. M. Lee,  M. S. Lee,  
 S. V. Levchenko,  Ching Yeh Lin,  D. Liotard,  R. C. Lochan,  I. Lotan,  
 P. E. Maslen,  N. Nair,  D. P. O'Neill,  D. Neuhauser,  E. Neuscamman,  
 C. M. Oana,  R. Olson,  B. Peters,  R. Peverati,  P. A. Pieniazek,  
 Y. M. Rhee,  J. Ritchie,  M. A. Rohrdanz,  E. Rosta,  N. J. Russ,  
 H. F. Schaefer III,  N. E. Schultz,  N. Shenvi,  A. C. Simmonett,  A. Sodt,  
 D. Stuck,  K. S. Thanthiriwatte,  V. Vanovschi,  Tao Wang,  A. Warshel,  
 C. F. Williams,  Q. Wu,  X. Xu,  W. Zhang

 Please cite Q-Chem as follows:
 Y. Shao et al., Mol. Phys. 113, 184-215 (2015)
 DOI: 10.1080/00268976.2014.952696

 Q-Chem 5.3.0 for Intel X86 EM64T Linux

 Parts of Q-Chem use Armadillo 9.800.1 (Horizon Scraper).
 http://arma.sourceforge.net/

 Q-Chem begins on Mon Mar 16 17:29:10 2020  

Host: 
0

     Scratch files written to /lscratch/mscheure/pyrimidine_adc3_343065.Meister/qchem6839//
Processing $rem in /export/home/mscheure/data/qchem_ccman2_pe/qchem/config/preferences:
Processing $rem in /export/home/mscheure/.qchemrc:

Checking the input file for inconsistencies... 	...done.

--------------------------------------------------------------
User input:
--------------------------------------------------------------
$molecule
 0 1
C	-1.1927800000	0.0000000000	0.6273357143
N	-1.1951400000	0.0000000000	-0.7226642857
C	0.0000000000	0.0000000000	-1.3016542857
N	1.1951400000	0.0000000000	-0.7226642857
C	1.1927800000	0.0000000000	0.6273357143
C	0.0000000000	0.0000000000	1.3468657143
H	2.1454800000	0.0000000000	1.1338957143
H	0.0000000000	0.0000000000	2.4338657143
H	-2.1454800000	0.0000000000	1.1338957143
H	0.0000000000	0.0000000000	-2.3836542857
$end

$rem
   METHOD            adc(3)
   BASIS             gen
   PURECART 1
   EE_SINGLETS       [0,0,1,1]
   symmetry         false
   mem_total 160000
   mem_static 2000
   threads 12
$end

$basis
H     0
S   4   1.00
     33.685014                .006068
      5.094788                .045316
      1.158786                .202846
      0.325840                .503709
S   1   1.00
      0.102741               1.00000
S   1   1.00
      0.032400               1.00000
P   2   1.00
      1.1588                  .188440
      0.3258                  .882420
P   2   1.00
      0.1027                  .117800
      0.0324                  .004200
****
C     0
S   5   1.00
   5240.6353                  .000937
    782.20480                 .007228
    178.35083                 .036344
     50.815942                .130600
     16.823562                .318931
S   2   1.00
      6.175776                .438742
      2.418049                .214974
S   1   1.00
      0.511900               1.
S   1   1.00
      0.156590               1.
S   1   1.00
      0.047900               1.
P   4   1.00
     18.841800                .013887
      4.159240                .086279
      1.206710                .288744
      0.385540                .499411
P   1   1.00
      0.121940               1.
P   1   1.00
      0.038568               1.
D   2   1.00
      1.206710                .262852
      0.385540                .804300
D   2   1.00
      0.121940                .653500
      0.038658                .863600
****
N     0
S   5   1.00
   8104.0716                  .000802
   1216.0215                  .006174
    277.23428                 .031233
     76.904023                .115198
     25.874419                .296951
S   2   1.00
      9.346767                .447349
      3.579794                .245003
S   1   1.00
      0.739610               1.
S   1   1.00
      0.222617               1.
S   1   1.00
      0.067006               1.
P   4   1.00
     26.868987                .014478
      5.991227                .091156
      1.750842                .297420
      0.560511                .493796
P   1   1.00
      0.175948               1.
P   1   1.00
      0.055231               1.
D   2   1.00
      1.750842                .224774
      0.560511                .659562
D   2   1.00
      0.175948                .871355
      0.055231                .704217
****
O     0
S   5   1.00
  10662.285                   .000799
   1599.7097                  .006153
    364.72526                 .031157
    103.65179                 .115596
     33.905805                .301552
S   2   1.00
     12.287469                .444870
      4.756805                .243172
S   1   1.00
      1.004271               1.
S   1   1.00
      0.300686               1.
S   1   1.00
      0.09003                1.
P   4   1.00
     34.856463                .015648
      7.843131                .098197
      2.306249                .307768
      0.723164                .492470
P   1   1.00
      0.214882               1.
P   1   1.00
      0.06385                1.
D   2   1.00
      2.3062                  .20270
      0.7232                  .5791
D   2   1.00
      0.2149                  .78545
      0.0639                  .53387
****
$end
--------------------------------------------------------------
 ----------------------------------------------------------------
             Standard Nuclear Orientation (Angstroms)
    I     Atom           X                Y                Z
 ----------------------------------------------------------------
    1      C      -1.1927800000    -0.0000000000     0.6273357143
    2      N      -1.1951400000    -0.0000000000    -0.7226642857
    3      C       0.0000000000    -0.0000000000    -1.3016542857
    4      N       1.1951400000    -0.0000000000    -0.7226642857
    5      C       1.1927800000     0.0000000000     0.6273357143
    6      C      -0.0000000000     0.0000000000     1.3468657143
    7      H       2.1454800000     0.0000000000     1.1338957143
    8      H      -0.0000000000     0.0000000000     2.4338657143
    9      H      -2.1454800000    -0.0000000000     1.1338957143
   10      H       0.0000000000    -0.0000000000    -2.3836542857
 ----------------------------------------------------------------
 Molecular Point Group                 C2v   NOp =  4
 Largest Abelian Subgroup              C2v   NOp =  4
 Nuclear Repulsion Energy =         208.71673275 hartrees
 There are       21 alpha and       21 beta electrons
 Requested basis set is non-standard
 There are 80 shells and 180 basis functions
 Total memory of 160000 MB is distributed as follows: 
   MEM_STATIC is set to 2000 MB
   QALLOC/CCMAN JOB total memory use is  158000 MB
 Warning: actual memory use might exceed 160000 MB

 Total QAlloc Memory Limit 160000 MB
 Mega-Array Size      1956 MB
 MEM_STATIC part      2000 MB

                       Distance Matrix (Angstroms)
             C (  1)   N (  2)   C (  3)   N (  4)   C (  5)   C (  6)
   N (  2)  1.350002
   C (  3)  2.267979  1.328002
   N (  4)  2.743112  2.390280  1.328002
   C (  5)  2.385560  2.743112  2.267979  1.350002
   C (  6)  1.392999  2.389836  2.648520  2.389836  1.392999
   H (  7)  3.376475  3.821853  3.245765  2.085656  1.079000  2.156024
   H (  8)  2.164781  3.375210  3.735520  3.375210  2.164781  1.087000
   H (  9)  1.079000  2.085656  3.245765  3.821853  3.376475  2.156024
   H ( 10)  3.238639  2.046276  1.082000  2.046276  3.238639  3.730520
             H (  7)   H (  8)   H (  9)
   H (  8)  2.508587
   H (  9)  4.290960  2.508587
   H ( 10)  4.120224  4.817520  4.120224
 
 A cutoff of  1.0D-11 yielded   3200 shell pairs
 There are     16448 function pairs (     18746 Cartesian)
 Smallest overlap matrix eigenvalue = 4.70E-06

 Scale SEOQF with 1.000000e-01/1.000000e-01/1.000000e-01

 Standard Electronic Orientation quadrupole field applied
 Nucleus-field energy     =    -0.0000000034 hartrees
 Guess MOs from core Hamiltonian diagonalization
 A restricted Hartree-Fock SCF calculation will be
 performed using Pulay DIIS extrapolation
 SCF converges when DIIS error is below 1.0E-08
 using 12 threads for integral computing
 -------------------------------------------------------
 OpenMP Integral computing Module                
 Release: version 2.0, May 2017, Q-Chem Inc. Pleasanton 
 -------------------------------------------------------
 ---------------------------------------
  Cycle       Energy         DIIS Error
 ---------------------------------------
    1    -223.8545299129      9.37E-02
    2    -190.5119533807      6.53E-02
    3    -227.7888750197      7.15E-02
    4    -257.6224686906      2.85E-02
    5    -261.8191583373      1.43E-02
    6    -262.6636189523      3.56E-03
    7    -262.7406962327      1.38E-03
    8    -262.7481385623      3.48E-04
    9    -262.7490751610      2.05E-04
   10    -262.7493510821      7.36E-05
   11    -262.7494222081      2.72E-05
   12    -262.7494330149      9.22E-06
   13    -262.7494344262      4.52E-06
   14    -262.7494346874      1.08E-06
   15    -262.7494346970      1.69E-07
   16    -262.7494346975      2.30E-08
   17    -262.7494346972      7.55E-09 Convergence criterion met
 ---------------------------------------
 SCF time:  CPU 308.56 s  wall 25.78 s
 SCF   energy in the final basis set = -262.74943470
 Total energy in the final basis set = -262.74943470
================================================================================
|                                                                              |
|                                 A D C  M A N                                 |
|                                                                              |
 ------------------------------------------------------------------------------ 
|                                                                              |
| Components:                                                                  |
|                                                                              |
| - libvmm - 1.3-trunk                                                         |
|   Authors:                                                                   |
|   Evgeny Epifanovsky, Ilya Kaliman                                           |
|                                                                              |
| - libtensor - 2.5-trunk                                                      |
|   Authors:                                                                   |
|   Evgeny Epifanovsky, Michael Wormit, Dmitry Zuev, Sam Manzer,               |
|   Ilya Kaliman                                                               |
|                                                                              |
| - libwfa - 1.1-trunk                                                         |
|   Authors:                                                                   |
|   Felix Plasser, Stefanie Mewes (Baeppler), Benjamin Thomitzni,              |
|   Michael Wormit, Feng Chen, Anna I. Krylov, Pavel Pokhilko                  |
|                                                                              |
| - libadc - 1.1-trunk                                                         |
|   Authors:                                                                   |
|   Michael Wormit, Adrian L. Dempwolff, Philipp H. P. Harbach,                |
|   Caroline Krauter, Dirk Rehn, Matthias Schneider, Jan Wenzel                |
|                                                                              |
| - adcman - 2.6-trunk                                                         |
|   Authors:                                                                   |
|   Michael Wormit, Adrian L. Dempwolff, Philipp H. P. Harbach,                |
|   Caroline Krauter, Daniel Lefrancois, Jan-Michael Mewes, Dirk Rehn,         |
|   Matthias Schneider, Jan Wenzel, Andreas Dreuw                              |
|                                                                              |
| Authors of earlier versions of ADCMAN:                                       |
| Andreas Dreuw, Jan Hendrik Starcke, Dirk Rehn, Michael Wormit                |
|                                                                              |
================================================================================

 
 Alpha MOs, Restricted
 -- Occupied --                  
-15.577 -15.577 -11.318 -11.311 -11.311 -11.261  -1.314  -1.196
  1 B1    1 A1    2 A1    3 A1    2 B1    4 A1    5 A1    3 B1                 
 -1.078  -0.902  -0.890  -0.742  -0.704  -0.650  -0.600  -0.592
  6 A1    4 B1    7 A1    8 A1    5 B1    9 A1    6 B1   10 A1                 
 -0.577  -0.472  -0.421  -0.420  -0.380
  1 B2   11 A1    1 A2    7 B1    2 B2                                         
 -- Virtual --                   
  0.031   0.042   0.047   0.059   0.074   0.075   0.090   0.098
 12 A1    8 B1   13 A1   14 A1    2 A2    3 B2    9 B1    4 B2                 
  0.099   0.112   0.116   0.117   0.118   0.133   0.138   0.151
 15 A1    5 B2   16 A1   10 B1    3 A2   11 B1   17 A1   18 A1                 
  0.163   0.163   0.165   0.176   0.198   0.224   0.224   0.225
 12 B1   19 A1    6 B2   20 A1   13 B1    4 A2    7 B2   21 A1                 
  0.250   0.250   0.276   0.277   0.290   0.296   0.299   0.303
 22 A1   14 B1    8 B2   15 B1    9 B2   23 A1   24 A1   16 B1                 
  0.310   0.310   0.326   0.328   0.330   0.332   0.336   0.337
 25 A1   17 B1   26 A1    5 A2   10 B2   18 B1   27 A1    6 A2                 
  0.359   0.378   0.386   0.387   0.407   0.408   0.420   0.425
 28 A1   19 B1   11 B2   29 A1    7 A2   12 B2   30 A1   20 B1                 
  0.436   0.441   0.478   0.480   0.487   0.490   0.495   0.509
 13 B2   31 A1   32 A1   21 B1   22 B1   14 B2    8 A2   33 A1                 
  0.530   0.539   0.550   0.561   0.575   0.581   0.589   0.599
 34 A1   23 B1   35 A1   36 A1   24 B1   25 B1   37 A1    9 A2                 
  0.605   0.610   0.613   0.643   0.670   0.687   0.719   0.720
 26 B1   15 B2   38 A1   39 A1   27 B1   40 A1   16 B2   41 A1                 
  0.723   0.742   0.753   0.759   0.762   0.779   0.784   0.825
 28 B1   17 B2   10 A2   42 A1   29 B1   43 A1   18 B2   30 B1                 
  0.833   0.844   0.853   0.858   0.865   0.929   0.963   0.973
 11 A2   31 B1   44 A1   12 A2   19 B2   20 B2   45 A1   32 B1                 
  0.995   1.008   1.037   1.038   1.075   1.085   1.110   1.143
 33 B1   46 A1   21 B2   13 A2   47 A1   34 B1   22 B2   35 B1                 
  1.160   1.161   1.175   1.185   1.257   1.329   1.333   1.348
 48 A1   14 A2   36 B1   49 A1   50 A1   37 B1   51 A1   23 B2                 
  1.375   1.382   1.393   1.408   1.420   1.427   1.451   1.478
 52 A1   24 B2   53 A1   38 B1   15 A2   54 A1   39 B1   55 A1                 
  1.524   1.530   1.565   1.604   1.612   1.633   1.663   1.670
 56 A1   40 B1   25 B2   41 B1   57 A1   26 B2   42 B1   16 A2                 
  1.724   1.764   1.767   1.807   1.811   1.850   1.878   1.988
 27 B2   17 A2   58 A1   59 A1   43 B1   60 A1   44 B1   45 B1                 
  1.996   2.092   2.184   2.204   2.207   2.222   2.247   2.295
 61 A1   62 A1   18 A2   63 A1   46 B1   28 B2   47 B1   64 A1                 
  2.407   2.430   2.537   2.558   2.561   2.594   2.597   2.753
 48 B1   19 A2   29 B2   65 A1   49 B1   66 A1   30 B2   67 A1                 
  2.887   2.980   2.994   3.106   3.141   3.200   3.335   3.346
 20 A2   50 B1   51 B1   68 A1   69 A1   52 B1   53 B1   70 A1                 
  3.936  22.622  22.996  23.036  23.281  34.220  34.229
 71 A1   72 A1   73 A1   54 B1   74 A1   75 A1   55 B1                         
 
 Beta MOs, Restricted
 -- Occupied --                  
-15.577 -15.577 -11.318 -11.311 -11.311 -11.261  -1.314  -1.196
  1 B1    1 A1    2 A1    3 A1    2 B1    4 A1    5 A1    3 B1                 
 -1.078  -0.902  -0.890  -0.742  -0.704  -0.650  -0.600  -0.592
  6 A1    4 B1    7 A1    8 A1    5 B1    9 A1    6 B1   10 A1                 
 -0.577  -0.472  -0.421  -0.420  -0.380
  1 B2   11 A1    1 A2    7 B1    2 B2                                         
 -- Virtual --                   
  0.031   0.042   0.047   0.059   0.074   0.075   0.090   0.098
 12 A1    8 B1   13 A1   14 A1    2 A2    3 B2    9 B1    4 B2                 
  0.099   0.112   0.116   0.117   0.118   0.133   0.138   0.151
 15 A1    5 B2   16 A1   10 B1    3 A2   11 B1   17 A1   18 A1                 
  0.163   0.163   0.165   0.176   0.198   0.224   0.224   0.225
 12 B1   19 A1    6 B2   20 A1   13 B1    4 A2    7 B2   21 A1                 
  0.250   0.250   0.276   0.277   0.290   0.296   0.299   0.303
 22 A1   14 B1    8 B2   15 B1    9 B2   23 A1   24 A1   16 B1                 
  0.310   0.310   0.326   0.328   0.330   0.332   0.336   0.337
 25 A1   17 B1   26 A1    5 A2   10 B2   18 B1   27 A1    6 A2                 
  0.359   0.378   0.386   0.387   0.407   0.408   0.420   0.425
 28 A1   19 B1   11 B2   29 A1    7 A2   12 B2   30 A1   20 B1                 
  0.436   0.441   0.478   0.480   0.487   0.490   0.495   0.509
 13 B2   31 A1   32 A1   21 B1   22 B1   14 B2    8 A2   33 A1                 
  0.530   0.539   0.550   0.561   0.575   0.581   0.589   0.599
 34 A1   23 B1   35 A1   36 A1   24 B1   25 B1   37 A1    9 A2                 
  0.605   0.610   0.613   0.643   0.670   0.687   0.719   0.720
 26 B1   15 B2   38 A1   39 A1   27 B1   40 A1   16 B2   41 A1                 
  0.723   0.742   0.753   0.759   0.762   0.779   0.784   0.825
 28 B1   17 B2   10 A2   42 A1   29 B1   43 A1   18 B2   30 B1                 
  0.833   0.844   0.853   0.858   0.865   0.929   0.963   0.973
 11 A2   31 B1   44 A1   12 A2   19 B2   20 B2   45 A1   32 B1                 
  0.995   1.008   1.037   1.038   1.075   1.085   1.110   1.143
 33 B1   46 A1   21 B2   13 A2   47 A1   34 B1   22 B2   35 B1                 
  1.160   1.161   1.175   1.185   1.257   1.329   1.333   1.348
 48 A1   14 A2   36 B1   49 A1   50 A1   37 B1   51 A1   23 B2                 
  1.375   1.382   1.393   1.408   1.420   1.427   1.451   1.478
 52 A1   24 B2   53 A1   38 B1   15 A2   54 A1   39 B1   55 A1                 
  1.524   1.530   1.565   1.604   1.612   1.633   1.663   1.670
 56 A1   40 B1   25 B2   41 B1   57 A1   26 B2   42 B1   16 A2                 
  1.724   1.764   1.767   1.807   1.811   1.850   1.878   1.988
 27 B2   17 A2   58 A1   59 A1   43 B1   60 A1   44 B1   45 B1                 
  1.996   2.092   2.184   2.204   2.207   2.222   2.247   2.295
 61 A1   62 A1   18 A2   63 A1   46 B1   28 B2   47 B1   64 A1                 
  2.407   2.430   2.537   2.558   2.561   2.594   2.597   2.753
 48 B1   19 A2   29 B2   65 A1   49 B1   66 A1   30 B2   67 A1                 
  2.887   2.980   2.994   3.106   3.141   3.200   3.335   3.346
 20 A2   50 B1   51 B1   68 A1   69 A1   52 B1   53 B1   70 A1                 
  3.936  22.622  22.996  23.036  23.281  34.220  34.229
 71 A1   72 A1   73 A1   54 B1   74 A1   75 A1   55 B1                         

--------------------------------------------------------------------------------
                                   HF Summary                                   
--------------------------------------------------------------------------------
  Energy:                                                 -262.7494346972 a.u.
  Dip. moment [a.u.]:                  [   0.000000,   -0.000000,    0.995013]
  Total dipole [Debye]:                                               2.529071
  <r^2> [a.u.]:                        [ 192.836046,   27.406039,  191.728485]
  Total <r^2> [a.u.]:                                               411.970570
--------------------------------------------------------------------------------

--------------------------------------------------------------------------------
                                 MP(2) Summary                                  
--------------------------------------------------------------------------------
  MP energy contribution:                                   -0.9556711004 a.u.
  Total energy:                                           -263.7051057976 a.u.
  Dip. moment [a.u.]:                  [  -0.000000,   -0.000000,    0.933973]
  Total dipole [Debye]:                                               2.373923
  <r^2> [a.u.]:                        [ 193.212449,   27.339720,  192.138418]
  Total <r^2> [a.u.]:                                               412.690587
--------------------------------------------------------------------------------

--------------------------------------------------------------------------------
                                 MP(3) Summary                                  
--------------------------------------------------------------------------------
  MP energy contribution:                                   -0.0219174173 a.u.
  Total energy:                                           -263.7270232149 a.u.
--------------------------------------------------------------------------------
  Starting Davidson for singlet states of irrep B1 ... 
--------------------------------------------------------------------------------
   It NVec Conv  Avg. Norm  Max. Norm  Conv. states           Remark
--------------------------------------------------------------------------------
         1    0  4.671e-01  4.671e-01  0.3744 n               Guess.
    1    2    0  2.539e-01  2.539e-01  0.2465 n               
    2    3    0  1.016e-01  1.016e-01  0.2088 n               
    3    4    0  5.888e-02  5.888e-02  0.1976 n               
    4    5    0  2.547e-02  2.547e-02  0.1949 n               
    5    2    0  1.294e-02  1.294e-02  0.1944 n               Subspace collapsed.
    6    3    0  1.081e-02  1.081e-02  0.1942 n               
    7    4    0  5.886e-03  5.886e-03  0.1941 n               
    8    5    0  2.295e-03  2.295e-03  0.1941 n               
    9    2    0  9.785e-04  9.785e-04  0.1941 n               Subspace collapsed.
   10    3    0  5.656e-04  5.656e-04  0.1941 n               
   11    4    0  3.093e-04  3.093e-04  0.1941 n               
   12    5    0  1.920e-04  1.920e-04  0.1941 n               
   13    2    0  1.063e-04  1.063e-04  0.1941 n               Subspace collapsed.
   14    3    0  7.329e-05  7.329e-05  0.1941 n               
   15    4    0  4.458e-05  4.458e-05  0.1941 n               
   16    5    0  2.558e-05  2.558e-05  0.1941 n               
   17    2    0  1.277e-05  1.277e-05  0.1941 n               Subspace collapsed.
   18    3    0  8.226e-06  8.226e-06  0.1941 n               
   19    4    0  4.417e-06  4.417e-06  0.1941 n               
   20    5    0  3.562e-06  3.562e-06  0.1941 n               
   21    2    0  1.814e-06  1.814e-06  0.1941 n               Subspace collapsed.
   22    3    0  1.453e-06  1.453e-06  0.1941 n               
   23    4    1  8.247e-07  8.247e-07  0.1941 y               Converged.
--------------------------------------------------------------------------------
  Davidson Summary: 
 ------------------------------------------------------------
  State  0: excitation energy =   0.1941 a.u.   (converged)
 ------------------------------------------------------------

  Starting Davidson for singlet states of irrep B2 ... 
--------------------------------------------------------------------------------
   It NVec Conv  Avg. Norm  Max. Norm  Conv. states           Remark
--------------------------------------------------------------------------------
         1    0  5.396e-01  5.396e-01  0.3585 n               Guess.
    1    2    0  2.286e-01  2.286e-01  0.2022 n               
    2    3    0  7.954e-02  7.954e-02  0.1740 n               
    3    4    0  4.873e-02  4.873e-02  0.1676 n               
    4    5    0  2.054e-02  2.054e-02  0.1659 n               
    5    2    0  8.168e-03  8.168e-03  0.1656 n               Subspace collapsed.
    6    3    0  6.427e-03  6.427e-03  0.1655 n               
    7    4    0  3.140e-03  3.140e-03  0.1655 n               
    8    5    0  1.705e-03  1.705e-03  0.1655 n               
    9    2    0  1.026e-03  1.026e-03  0.1655 n               Subspace collapsed.
   10    3    0  1.071e-03  1.071e-03  0.1655 n               
   11    4    0  4.213e-04  4.213e-04  0.1655 n               
   12    5    0  3.334e-04  3.334e-04  0.1655 n               
   13    2    0  1.369e-04  1.369e-04  0.1655 n               Subspace collapsed.
   14    3    0  1.186e-04  1.186e-04  0.1655 n               
   15    4    0  4.864e-05  4.864e-05  0.1655 n               
   16    5    0  3.113e-05  3.113e-05  0.1655 n               
   17    2    0  2.335e-05  2.335e-05  0.1655 n               Subspace collapsed.
   18    3    0  2.527e-05  2.527e-05  0.1655 n               
   19    4    0  9.016e-06  9.016e-06  0.1655 n               
   20    5    0  7.930e-06  7.930e-06  0.1655 n               
   21    2    0  3.191e-06  3.191e-06  0.1655 n               Subspace collapsed.
   22    3    0  2.837e-06  2.837e-06  0.1655 n               
   23    4    0  1.040e-06  1.040e-06  0.1655 n               
   24    5    1  7.924e-07  7.924e-07  0.1655 y               Converged.
--------------------------------------------------------------------------------
  Davidson Summary: 
 ------------------------------------------------------------
  State  0: excitation energy =   0.1655 a.u.   (converged)
 ------------------------------------------------------------


--------------------------------------------------------------------------------
                             Excited State Summary
--------------------------------------------------------------------------------
--------------------------------------------------------------------------------

  Excited state 1 (singlet, B2)                                    [converged]
  ----------------------------------------------------------------------------
  Term symbol:  1 (1) B2                                    R^2 =  7.92367e-07

  Total energy:                                           -263.5615257576 a.u.
  Excitation energy:                                               4.503415 eV

  Osc. strength:                                                      0.006267
  Trans. dip. moment [a.u.]:           [  -0.000000,    0.238331,   -0.000000]
  <i|r^2|0> [a.u.]:                    [  -0.000000,   -0.000000,   -0.000000]


  V1^2 = 0.8712, V2^2 = 0.1288

  Important amplitudes:
       occ i       occ j       vir a       vir b          v   
    -----------------------------------------------------------
      7 (B1) A                2 (A2) A                  0.5923
      7 (B1) A                3 (A2) A                 -0.2405
    -----------------------------------------------------------
  ----------------------------------------------------------------------------


  Excited state 2 (singlet, B1)                                    [converged]
  ----------------------------------------------------------------------------
  Term symbol:  1 (1) B1                                    R^2 =  8.24662e-07

  Total energy:                                           -263.5329548231 a.u.
  Excitation energy:                                               5.280870 eV

  Osc. strength:                                                      0.038882
  Trans. dip. moment [a.u.]:           [  -0.548203,    0.000000,    0.000000]
  <i|r^2|0> [a.u.]:                    [   0.000000,    0.000000,   -0.000000]


  V1^2 = 0.8615, V2^2 = 0.1385

  Important amplitudes:
       occ i       occ j       vir a       vir b          v   
    -----------------------------------------------------------
      2 (B2) A                2 (A2) A                  0.5134
      1 (A2) A                4 (B2) A                  0.2907
    -----------------------------------------------------------
  ----------------------------------------------------------------------------


--------------------------------------------------------------------------------
  Time of ADC calculation:  CPU 936.28 s  wall 102.43 s
================================================================================
 
 --------------------------------------------------------------
             Orbital Energies (a.u.) and Symmetries
 --------------------------------------------------------------
 
 Alpha MOs, Restricted
 -- Occupied --                  
-15.577 -15.577 -11.318 -11.311 -11.311 -11.261  -1.314  -1.196
  1 B1    1 A1    2 A1    3 A1    2 B1    4 A1    5 A1    3 B1                 
 -1.078  -0.902  -0.890  -0.742  -0.704  -0.650  -0.600  -0.592
  6 A1    4 B1    7 A1    8 A1    5 B1    9 A1    6 B1   10 A1                 
 -0.577  -0.472  -0.421  -0.420  -0.380
  1 B2   11 A1    1 A2    7 B1    2 B2                                         
 -- Virtual --                   
  0.031   0.042   0.047   0.059   0.074   0.075   0.090   0.098
 12 A1    8 B1   13 A1   14 A1    2 A2    3 B2    9 B1    4 B2                 
  0.099   0.112   0.116   0.117   0.118   0.133   0.138   0.151
 15 A1    5 B2   16 A1   10 B1    3 A2   11 B1   17 A1   18 A1                 
  0.163   0.163   0.165   0.176   0.198   0.224   0.224   0.225
 12 B1   19 A1    6 B2   20 A1   13 B1    4 A2    7 B2   21 A1                 
  0.250   0.250   0.276   0.277   0.290   0.296   0.299   0.303
 22 A1   14 B1    8 B2   15 B1    9 B2   23 A1   24 A1   16 B1                 
  0.310   0.310   0.326   0.328   0.330   0.332   0.336   0.337
 25 A1   17 B1   26 A1    5 A2   10 B2   18 B1   27 A1    6 A2                 
  0.359   0.378   0.386   0.387   0.407   0.408   0.420   0.425
 28 A1   19 B1   11 B2   29 A1    7 A2   12 B2   30 A1   20 B1                 
  0.436   0.441   0.478   0.480   0.487   0.490   0.495   0.509
 13 B2   31 A1   32 A1   21 B1   22 B1   14 B2    8 A2   33 A1                 
  0.530   0.539   0.550   0.561   0.575   0.581   0.589   0.599
 34 A1   23 B1   35 A1   36 A1   24 B1   25 B1   37 A1    9 A2                 
  0.605   0.610   0.613   0.643   0.670   0.687   0.719   0.720
 26 B1   15 B2   38 A1   39 A1   27 B1   40 A1   16 B2   41 A1                 
  0.723   0.742   0.753   0.759   0.762   0.779   0.784   0.825
 28 B1   17 B2   10 A2   42 A1   29 B1   43 A1   18 B2   30 B1                 
  0.833   0.844   0.853   0.858   0.865   0.929   0.963   0.973
 11 A2   31 B1   44 A1   12 A2   19 B2   20 B2   45 A1   32 B1                 
  0.995   1.008   1.037   1.038   1.075   1.085   1.110   1.143
 33 B1   46 A1   21 B2   13 A2   47 A1   34 B1   22 B2   35 B1                 
  1.160   1.161   1.175   1.185   1.257   1.329   1.333   1.348
 48 A1   14 A2   36 B1   49 A1   50 A1   37 B1   51 A1   23 B2                 
  1.375   1.382   1.393   1.408   1.420   1.427   1.451   1.478
 52 A1   24 B2   53 A1   38 B1   15 A2   54 A1   39 B1   55 A1                 
  1.524   1.530   1.565   1.604   1.612   1.633   1.663   1.670
 56 A1   40 B1   25 B2   41 B1   57 A1   26 B2   42 B1   16 A2                 
  1.724   1.764   1.767   1.807   1.811   1.850   1.878   1.988
 27 B2   17 A2   58 A1   59 A1   43 B1   60 A1   44 B1   45 B1                 
  1.996   2.092   2.184   2.204   2.207   2.222   2.247   2.295
 61 A1   62 A1   18 A2   63 A1   46 B1   28 B2   47 B1   64 A1                 
  2.407   2.430   2.537   2.558   2.561   2.594   2.597   2.753
 48 B1   19 A2   29 B2   65 A1   49 B1   66 A1   30 B2   67 A1                 
  2.887   2.980   2.994   3.106   3.141   3.200   3.335   3.346
 20 A2   50 B1   51 B1   68 A1   69 A1   52 B1   53 B1   70 A1                 
  3.936  22.622  22.996  23.036  23.281  34.220  34.229
 71 A1   72 A1   73 A1   54 B1   74 A1   75 A1   55 B1                         
 
 Beta MOs, Restricted
 -- Occupied --                  
-15.577 -15.577 -11.318 -11.311 -11.311 -11.261  -1.314  -1.196
  1 B1    1 A1    2 A1    3 A1    2 B1    4 A1    5 A1    3 B1                 
 -1.078  -0.902  -0.890  -0.742  -0.704  -0.650  -0.600  -0.592
  6 A1    4 B1    7 A1    8 A1    5 B1    9 A1    6 B1   10 A1                 
 -0.577  -0.472  -0.421  -0.420  -0.380
  1 B2   11 A1    1 A2    7 B1    2 B2                                         
 -- Virtual --                   
  0.031   0.042   0.047   0.059   0.074   0.075   0.090   0.098
 12 A1    8 B1   13 A1   14 A1    2 A2    3 B2    9 B1    4 B2                 
  0.099   0.112   0.116   0.117   0.118   0.133   0.138   0.151
 15 A1    5 B2   16 A1   10 B1    3 A2   11 B1   17 A1   18 A1                 
  0.163   0.163   0.165   0.176   0.198   0.224   0.224   0.225
 12 B1   19 A1    6 B2   20 A1   13 B1    4 A2    7 B2   21 A1                 
  0.250   0.250   0.276   0.277   0.290   0.296   0.299   0.303
 22 A1   14 B1    8 B2   15 B1    9 B2   23 A1   24 A1   16 B1                 
  0.310   0.310   0.326   0.328   0.330   0.332   0.336   0.337
 25 A1   17 B1   26 A1    5 A2   10 B2   18 B1   27 A1    6 A2                 
  0.359   0.378   0.386   0.387   0.407   0.408   0.420   0.425
 28 A1   19 B1   11 B2   29 A1    7 A2   12 B2   30 A1   20 B1                 
  0.436   0.441   0.478   0.480   0.487   0.490   0.495   0.509
 13 B2   31 A1   32 A1   21 B1   22 B1   14 B2    8 A2   33 A1                 
  0.530   0.539   0.550   0.561   0.575   0.581   0.589   0.599
 34 A1   23 B1   35 A1   36 A1   24 B1   25 B1   37 A1    9 A2                 
  0.605   0.610   0.613   0.643   0.670   0.687   0.719   0.720
 26 B1   15 B2   38 A1   39 A1   27 B1   40 A1   16 B2   41 A1                 
  0.723   0.742   0.753   0.759   0.762   0.779   0.784   0.825
 28 B1   17 B2   10 A2   42 A1   29 B1   43 A1   18 B2   30 B1                 
  0.833   0.844   0.853   0.858   0.865   0.929   0.963   0.973
 11 A2   31 B1   44 A1   12 A2   19 B2   20 B2   45 A1   32 B1                 
  0.995   1.008   1.037   1.038   1.075   1.085   1.110   1.143
 33 B1   46 A1   21 B2   13 A2   47 A1   34 B1   22 B2   35 B1                 
  1.160   1.161   1.175   1.185   1.257   1.329   1.333   1.348
 48 A1   14 A2   36 B1   49 A1   50 A1   37 B1   51 A1   23 B2                 
  1.375   1.382   1.393   1.408   1.420   1.427   1.451   1.478
 52 A1   24 B2   53 A1   38 B1   15 A2   54 A1   39 B1   55 A1                 
  1.524   1.530   1.565   1.604   1.612   1.633   1.663   1.670
 56 A1   40 B1   25 B2   41 B1   57 A1   26 B2   42 B1   16 A2                 
  1.724   1.764   1.767   1.807   1.811   1.850   1.878   1.988
 27 B2   17 A2   58 A1   59 A1   43 B1   60 A1   44 B1   45 B1                 
  1.996   2.092   2.184   2.204   2.207   2.222   2.247   2.295
 61 A1   62 A1   18 A2   63 A1   46 B1   28 B2   47 B1   64 A1                 
  2.407   2.430   2.537   2.558   2.561   2.594   2.597   2.753
 48 B1   19 A2   29 B2   65 A1   49 B1   66 A1   30 B2   67 A1                 
  2.887   2.980   2.994   3.106   3.141   3.200   3.335   3.346
 20 A2   50 B1   51 B1   68 A1   69 A1   52 B1   53 B1   70 A1                 
  3.936  22.622  22.996  23.036  23.281  34.220  34.229
 71 A1   72 A1   73 A1   54 B1   74 A1   75 A1   55 B1                         
 --------------------------------------------------------------
 
          Ground-State Mulliken Net Atomic Charges

     Atom                 Charge (a.u.)
  ----------------------------------------
      1 C                     1.320462
      2 N                    -1.057675
      3 C                     0.944514
      4 N                    -1.057675
      5 C                     1.320461
      6 C                     1.231404
      7 H                    -0.511095
      8 H                    -1.189563
      9 H                    -0.511095
     10 H                    -0.489737
  ----------------------------------------
  Sum of atomic charges =     0.000000

 -----------------------------------------------------------------
                    Cartesian Multipole Moments
 -----------------------------------------------------------------
    Charge (ESU x 10^10)
                 0.0000
    Dipole Moment (Debye)
         X       0.0000      Y      -0.0000      Z       2.5291
       Tot       2.5291
    Quadrupole Moments (Debye-Ang)
        XX     -37.0985     XY       0.0000     YY     -36.8621
        XZ      -0.0000     YZ       0.0000     ZZ     -30.8768
    Octopole Moments (Debye-Ang^2)
       XXX       0.0000    XXY      -0.0000    XYY      -0.0000
       YYY      -0.0000    XXZ      16.1981    XYZ       0.0000
       YYZ      -1.4854    XZZ       0.0000    YZZ       0.0000
       ZZZ      -1.2396
    Hexadecapole Moments (Debye-Ang^3)
      XXXX    -258.3763   XXXY       0.0000   XXYY     -52.9673
      XYYY      -0.0000   YYYY     -41.3118   XXXZ       0.0000
      XXYZ       0.0000   XYYZ      -0.0000   YYYZ      -0.0000
      XXZZ     -91.9451   XYZZ      -0.0000   YYZZ     -54.8392
      XZZZ       0.0000   YZZZ       0.0000   ZZZZ    -228.2596
 -----------------------------------------------------------------
Archival summary:
1\1\Knecht17\SP\HF\BasisUnspecified\244\mscheure\MonMar1617:32:362020MonMar1617:32:362020\0\\#,HF,BasisUnspecified,\\0,1\N\C,1,1.328\H,2,1.082,1,115.848\N,2,1.328,1,128.304,3,180,0\C,4,1.35,2,115.748,1,0,0\H,5,1.079,4,117.9,2,180,0\C,1,1.35,2,115.748,3,-180,0\H,7,1.079,1,117.9,2,-180,0\C,5,1.393,4,121.2,2,-0,0\H,9,1.087,5,121.1,4,180,0\\HF=-262.749435\\@

 Total job time:  206.15s(wall), 1326.73s(cpu) 
 Mon Mar 16 17:32:36 2020

        *************************************************************
        *                                                           *
        *  Thank you very much for using Q-Chem.  Have a nice day.  *
        *                                                           *
        *************************************************************


