                  Welcome to Q-Chem
     A Quantum Leap Into The Future Of Chemistry


 Q-Chem 5.3 (devel), Q-Chem, Inc., Pleasanton, CA (2020)

 Yihan Shao,  Zhengting Gan,  E. Epifanovsky,  A. T. B. Gilbert,  M. Wormit,  
 J. Kussmann,  A. W. Lange,  A. Behn,  Jia Deng,  Xintian Feng,  D. Ghosh,  
 M. Goldey,  P. R. Horn,  L. D. Jacobson,  I. Kaliman,  T. Kus,  A. Landau,  
 Jie Liu,  E. I. Proynov,  R. M. Richard,  R. P. Steele,  E. J. Sundstrom,  
 H. L. Woodcock III,  P. M. Zimmerman,  D. Zuev,  B. Alam,  B. Albrecht,  
 E. Alguire,  S. A. Baeppler,  D. Barton,  Z. Benda,  Y. A. Bernard,  
 E. J. Berquist,  K. B. Bravaya,  H. Burton,  K. Carter-Fenk,  D. Casanova,  
 Chun-Min Chang,  Yunqing Chen,  A. Chien,  K. D. Closser,  M. P. Coons,  
 S. Coriani,  S. Dasgupta,  A. L. Dempwolff,  M. Diedenhofen,  Hainam Do,  
 R. G. Edgar,  Po-Tung Fang,  S. Faraji,  S. Fatehi,  Qingguo Feng,  
 J. Fosso-Tande,  J. Gayvert,  Qinghui Ge,  A. Ghysels,  G. Gidofalvi,  
 J. Gomes,  J. Gonthier,  A. Gunina,  D. Hait,  M. W. D. Hanson-Heine,  
 P. H. P. Harbach,  A. W. Hauser,  M. F. Herbst,  J. E. Herr,  
 E. G. Hohenstein,  Z. C. Holden,  Kerwin Hui,  B. C. Huynh,  T.-C. Jagau,  
 Hyunjun Ji,  B. Kaduk,  K. Khistyaev,  Jaehoon Kim,  P. Klunzinger,  K. Koh,  
 D. Kosenkov,  L. Koulias,  T. Kowalczyk,  C. M. Krauter,  A. Kunitsa,  
 Ka Un Lao,  A. Laurent,  K. V. Lawler,  Joonho Lee,  D. Lefrancois,  
 S. Lehtola,  D. S. Levine,  Yi-Pei Li,  You-Sheng Lin,  Fenglai Liu,  
 Kuan-Yu Liu,  E. Livshits,  M. Loipersberger,  A. Luenser,  P. Manohar,  
 E. Mansoor,  S. F. Manzer,  Shan-Ping Mao,  Yuezhi Mao,  N. Mardirossian,  
 A. V. Marenich,  T. Markovich,  L. A. Martinez-Martinez,  S. A. Maurer,  
 N. J. Mayhall,  S. C. McKenzie,  J.-M. Mewes,  P. Morgante,  A. F. Morrison,  
 J. W. Mullinax,  K. Nanda,  T. S. Nguyen-Beck,  R. Olivares-Amaya,  
 J. A. Parkhill,  S. K. Paul,  F. Pavosevic,  Zheng Pei,  T. M. Perrine,  
 F. Plasser,  P. Pokhilko,  S. Prager,  A. Prociuk,  E. Ramos,  B. Rana,  
 D. R. Rehn,  F. Rob,  M. Scheurer,  M. Schneider,  N. Sergueev,  
 S. M. Sharada,  S. Sharma,  D. W. Small,  T. Stauch,  C. J. Stein,  
 T. Stein,  Yu-Chuan Su,  S. P. Veccham,  Zhen Tao,  A. J. W. Thom,  
 A. Tkatchenko,  T. Tsuchimochi,  N. M. Tubman,  L. Vogt,  M. L. Vidal,  
 O. Vydrov,  M. A. Watson,  J. Wenzel,  M. de Wergifosse,  T. A. Wesolowski,  
 A. White,  J. Witte,  A. Yamada,  Jun Yang,  K. Yao,  S. Yeganeh,  
 S. R. Yost,  Zhi-Qiang You,  A. Zech,  Igor Ying Zhang,  Xing Zhang,  
 Yan Zhao,  Ying Zhu,  B. R. Brooks,  G. K. L. Chan,  C. J. Cramer,  
 M. S. Gordon,  W. J. Hehre,  A. Klamt,  M. W. Schmidt,  C. D. Sherrill,  
 D. G. Truhlar,  A. Aspuru-Guzik,  R. Baer,  A. T. Bell,  N. A. Besley,  
 Jeng-Da Chai,  A. E. DePrince, III,  R. A. DiStasio Jr.,  A. Dreuw,  
 B. D. Dunietz,  T. R. Furlani,  Chao-Ping Hsu,  Yousung Jung,  Jing Kong,  
 D. S. Lambrecht,  WanZhen Liang,  C. Ochsenfeld,  V. A. Rassolov,  
 L. V. Slipchenko,  J. E. Subotnik,  T. Van Voorhis,  J. M. Herbert,  
 A. I. Krylov,  P. M. W. Gill,  M. Head-Gordon

 Contributors to earlier versions of Q-Chem not listed above: 
 R. D. Adamson,  B. Austin,  J. Baker,  G. J. O. Beran,  K. Brandhorst,  
 S. T. Brown,  E. F. C. Byrd,  A. K. Chakraborty,  C.-L. Cheng,  
 Siu Hung Chien,  D. M. Chipman,  D. L. Crittenden,  H. Dachsel,  
 R. J. Doerksen,  A. D. Dutoi,  L. Fusti-Molnar,  W. A. Goddard III,  
 A. Golubeva-Zadorozhnaya,  S. R. Gwaltney,  G. Hawkins,  A. Heyden,  
 S. Hirata,  G. Kedziora,  F. J. Keil,  C. Kelley,  Jihan Kim,  R. A. King,  
 R. Z. Khaliullin,  P. P. Korambath,  W. Kurlancheek,  A. M. Lee,  M. S. Lee,  
 S. V. Levchenko,  Ching Yeh Lin,  D. Liotard,  R. C. Lochan,  I. Lotan,  
 P. E. Maslen,  N. Nair,  D. P. O'Neill,  D. Neuhauser,  E. Neuscamman,  
 C. M. Oana,  R. Olson,  B. Peters,  R. Peverati,  P. A. Pieniazek,  
 Y. M. Rhee,  J. Ritchie,  M. A. Rohrdanz,  E. Rosta,  N. J. Russ,  
 H. F. Schaefer III,  N. E. Schultz,  N. Shenvi,  A. C. Simmonett,  A. Sodt,  
 D. Stuck,  K. S. Thanthiriwatte,  V. Vanovschi,  Tao Wang,  A. Warshel,  
 C. F. Williams,  Q. Wu,  X. Xu,  W. Zhang

 Please cite Q-Chem as follows:
 Y. Shao et al., Mol. Phys. 113, 184-215 (2015)
 DOI: 10.1080/00268976.2014.952696

 Q-Chem 5.3.0 for Intel X86 EM64T Linux

 Parts of Q-Chem use Armadillo 9.800.1 (Horizon Scraper).
 http://arma.sourceforge.net/

 Q-Chem begins on Tue Mar 31 11:56:10 2020  

Host: 
0

     Scratch files written to /lscratch/mscheure/pyrimidine_eompol2_344749.Meister/qchem30323//
Processing $rem in /export/home/mscheure/data/qchem_ccman2_pe/qchem/config/preferences:
Processing $rem in /export/home/mscheure/.qchemrc:
Core orbitals will be frozen

Checking the input file for inconsistencies... 	...done.

--------------------------------------------------------------
User input:
--------------------------------------------------------------
$molecule
 0 1
C	-1.1927800000	0.0000000000	0.6273357143
N	-1.1951400000	0.0000000000	-0.7226642857
C	0.0000000000	0.0000000000	-1.3016542857
N	1.1951400000	0.0000000000	-0.7226642857
C	1.1927800000	0.0000000000	0.6273357143
C	0.0000000000	0.0000000000	1.3468657143
H	2.1454800000	0.0000000000	1.1338957143
H	0.0000000000	0.0000000000	2.4338657143
H	-2.1454800000	0.0000000000	1.1338957143
H	0.0000000000	0.0000000000	-2.3836542857
$end

$rem
   METHOD            ccsd
   BASIS             gen
   PURECART 1
   CC_REF_PROP       true
   CC_EOM_PROP       true
   CC_POL            2
   EOM_POL           2
   CC_FULLRESPONSE   true
   EE_SINGLETS       [0,0,1,1]
   !sym_ignore        true
   symmetry         false
   !cc_symmetry false
   mem_total 100000
   threads 12
$end

$basis
H     0
S   4   1.00
     33.685014                .006068
      5.094788                .045316
      1.158786                .202846
      0.325840                .503709
S   1   1.00
      0.102741               1.00000
S   1   1.00
      0.032400               1.00000
P   2   1.00
      1.1588                  .188440
      0.3258                  .882420
P   2   1.00
      0.1027                  .117800
      0.0324                  .004200
****
C     0
S   5   1.00
   5240.6353                  .000937
    782.20480                 .007228
    178.35083                 .036344
     50.815942                .130600
     16.823562                .318931
S   2   1.00
      6.175776                .438742
      2.418049                .214974
S   1   1.00
      0.511900               1.
S   1   1.00
      0.156590               1.
S   1   1.00
      0.047900               1.
P   4   1.00
     18.841800                .013887
      4.159240                .086279
      1.206710                .288744
      0.385540                .499411
P   1   1.00
      0.121940               1.
P   1   1.00
      0.038568               1.
D   2   1.00
      1.206710                .262852
      0.385540                .804300
D   2   1.00
      0.121940                .653500
      0.038658                .863600
****
N     0
S   5   1.00
   8104.0716                  .000802
   1216.0215                  .006174
    277.23428                 .031233
     76.904023                .115198
     25.874419                .296951
S   2   1.00
      9.346767                .447349
      3.579794                .245003
S   1   1.00
      0.739610               1.
S   1   1.00
      0.222617               1.
S   1   1.00
      0.067006               1.
P   4   1.00
     26.868987                .014478
      5.991227                .091156
      1.750842                .297420
      0.560511                .493796
P   1   1.00
      0.175948               1.
P   1   1.00
      0.055231               1.
D   2   1.00
      1.750842                .224774
      0.560511                .659562
D   2   1.00
      0.175948                .871355
      0.055231                .704217
****
O     0
S   5   1.00
  10662.285                   .000799
   1599.7097                  .006153
    364.72526                 .031157
    103.65179                 .115596
     33.905805                .301552
S   2   1.00
     12.287469                .444870
      4.756805                .243172
S   1   1.00
      1.004271               1.
S   1   1.00
      0.300686               1.
S   1   1.00
      0.09003                1.
P   4   1.00
     34.856463                .015648
      7.843131                .098197
      2.306249                .307768
      0.723164                .492470
P   1   1.00
      0.214882               1.
P   1   1.00
      0.06385                1.
D   2   1.00
      2.3062                  .20270
      0.7232                  .5791
D   2   1.00
      0.2149                  .78545
      0.0639                  .53387
****
$end
--------------------------------------------------------------
 ----------------------------------------------------------------
             Standard Nuclear Orientation (Angstroms)
    I     Atom           X                Y                Z
 ----------------------------------------------------------------
    1      C      -1.1927800000    -0.0000000000     0.6273357143
    2      N      -1.1951400000    -0.0000000000    -0.7226642857
    3      C       0.0000000000    -0.0000000000    -1.3016542857
    4      N       1.1951400000    -0.0000000000    -0.7226642857
    5      C       1.1927800000     0.0000000000     0.6273357143
    6      C      -0.0000000000     0.0000000000     1.3468657143
    7      H       2.1454800000     0.0000000000     1.1338957143
    8      H      -0.0000000000     0.0000000000     2.4338657143
    9      H      -2.1454800000    -0.0000000000     1.1338957143
   10      H       0.0000000000    -0.0000000000    -2.3836542857
 ----------------------------------------------------------------
 Molecular Point Group                 C2v   NOp =  4
 Largest Abelian Subgroup              C2v   NOp =  4
 Nuclear Repulsion Energy =         208.71673275 hartrees
 There are       21 alpha and       21 beta electrons
 Requested basis set is non-standard
 There are 80 shells and 180 basis functions
 Total memory of 100000 MB is distributed as follows: 
   MEM_STATIC is set to 192 MB
   QALLOC/CCMAN JOB total memory use is  99808 MB
 Warning: actual memory use might exceed 100000 MB

 Total QAlloc Memory Limit 100000 MB
 Mega-Array Size       188 MB
 MEM_STATIC part       192 MB

                       Distance Matrix (Angstroms)
             C (  1)   N (  2)   C (  3)   N (  4)   C (  5)   C (  6)
   N (  2)  1.350002
   C (  3)  2.267979  1.328002
   N (  4)  2.743112  2.390280  1.328002
   C (  5)  2.385560  2.743112  2.267979  1.350002
   C (  6)  1.392999  2.389836  2.648520  2.389836  1.392999
   H (  7)  3.376475  3.821853  3.245765  2.085656  1.079000  2.156024
   H (  8)  2.164781  3.375210  3.735520  3.375210  2.164781  1.087000
   H (  9)  1.079000  2.085656  3.245765  3.821853  3.376475  2.156024
   H ( 10)  3.238639  2.046276  1.082000  2.046276  3.238639  3.730520
             H (  7)   H (  8)   H (  9)
   H (  8)  2.508587
   H (  9)  4.290960  2.508587
   H ( 10)  4.120224  4.817520  4.120224
 
 A cutoff of  1.0D-14 yielded   3204 shell pairs
 There are     16452 function pairs (     18750 Cartesian)
 Smallest overlap matrix eigenvalue = 4.70E-06

 Scale SEOQF with 1.000000e-01/1.000000e-01/1.000000e-01

 Standard Electronic Orientation quadrupole field applied
 Nucleus-field energy     =    -0.0000000034 hartrees
 Guess MOs from core Hamiltonian diagonalization

 -----------------------------------------------------------------------
  General SCF calculation program by
  Eric Jon Sundstrom, Paul Horn, Yuezhi Mao, Dmitri Zuev, Alec White,
  David Stuck, Shaama M.S., Shane Yost, Joonho Lee, David Small,
  Daniel Levine, Susi Lehtola, Hugh Burton, Evgeny Epifanovsky,
  Bang C. Huynh
 -----------------------------------------------------------------------
 Hartree-Fock
 using 12 threads for integral computing
 -------------------------------------------------------
 OpenMP Integral computing Module                
 Release: version 2.0, May 2017, Q-Chem Inc. Pleasanton 
 -------------------------------------------------------
 A restricted SCF calculation will be
 performed using DIIS
 SCF converges when DIIS error is below 1.0e-08
 ---------------------------------------
  Cycle       Energy         DIIS error
 ---------------------------------------
    1    -223.8545299019      9.37e-02  
    2    -190.5119535539      6.53e-02  
    3    -227.7888752661      7.15e-02  
    4    -257.6224687020      2.85e-02  
    5    -261.8191583327      1.43e-02  
    6    -262.6636189482      3.56e-03  
    7    -262.7406962332      1.38e-03  
    8    -262.7481385629      3.48e-04  
    9    -262.7490751616      2.05e-04  
   10    -262.7493510828      7.36e-05  
   11    -262.7494222092      2.72e-05  
   12    -262.7494330162      9.22e-06  
   13    -262.7494344274      4.52e-06  
   14    -262.7494346886      1.08e-06  
   15    -262.7494346971      1.69e-07  
   16    -262.7494346974      2.27e-08  
   17    -262.7494346974      6.18e-09  Convergence criterion met
 ---------------------------------------
 SCF time:   CPU 275.21s  wall 23.00s 
 SCF   energy in the final basis set =     -262.7494346974
 Total energy in the final basis set =     -262.7494346974


 ------------------------------------------------------------------------------

   CCMAN2: suite of methods based on coupled cluster
           and equation of motion theories.

   Components:
   * libvmm-1.3-trunk
     by Evgeny Epifanovsky, Ilya Kaliman.
   * libtensor-2.5-trunk
     by Evgeny Epifanovsky, Michael Wormit, Dmitry Zuev, Sam Manzer, 
        Ilya Kaliman.
   * libcc-2.5-trunk
     by Evgeny Epifanovsky, Arik Landau, Tomasz Kus, Kirill Khistyaev, 
        Dmitry Zuev, Prashant Manohar, Xintian Feng, Anna Krylov, 
        Matthew Goldey, Alec White, Thomas Jagau, Kaushik Nanda, 
        Anastasia Gunina, Alexander Kunitsa, Joonho Lee.

   CCMAN original authors:
   Anna I. Krylov, C. David Sherrill, Steven R. Gwaltney,
   Edward F. C. Byrd (2000)
   Sergey V. Levchenko, Lyudmila V. Slipchenko, Tao Wang,
   Ana-Maria C. Cristian (2003)
   Piotr A. Pieniazek, C. Melania Oana, Evgeny Epifanovsky (2007)
   Prashant Manohar (2009)

 ------------------------------------------------------------------------------


 Allocating and initializing 99808MB of RAM...
 Calculation will run on 12 cores.

 
 Alpha MOs, Restricted
 -- Occupied --                  
-15.577 -15.577 -11.318 -11.311 -11.311 -11.261  -1.314  -1.196
  1 B1    1 A1    2 A1    3 A1    2 B1    4 A1    5 A1    3 B1                 
 -1.078  -0.902  -0.890  -0.742  -0.704  -0.650  -0.600  -0.592
  6 A1    4 B1    7 A1    8 A1    5 B1    9 A1    6 B1   10 A1                 
 -0.577  -0.472  -0.421  -0.420  -0.380
  1 B2   11 A1    1 A2    7 B1    2 B2                                         
 -- Virtual --                   
  0.031   0.042   0.047   0.059   0.074   0.075   0.090   0.098
 12 A1    8 B1   13 A1   14 A1    2 A2    3 B2    9 B1    4 B2                 
  0.099   0.112   0.116   0.117   0.118   0.133   0.138   0.151
 15 A1    5 B2   16 A1   10 B1    3 A2   11 B1   17 A1   18 A1                 
  0.163   0.163   0.165   0.176   0.198   0.224   0.224   0.225
 12 B1   19 A1    6 B2   20 A1   13 B1    4 A2    7 B2   21 A1                 
  0.250   0.250   0.276   0.277   0.290   0.296   0.299   0.303
 22 A1   14 B1    8 B2   15 B1    9 B2   23 A1   24 A1   16 B1                 
  0.310   0.310   0.326   0.328   0.330   0.332   0.336   0.337
 25 A1   17 B1   26 A1    5 A2   10 B2   18 B1   27 A1    6 A2                 
  0.359   0.378   0.386   0.387   0.407   0.408   0.420   0.425
 28 A1   19 B1   11 B2   29 A1    7 A2   12 B2   30 A1   20 B1                 
  0.436   0.441   0.478   0.480   0.487   0.490   0.495   0.509
 13 B2   31 A1   32 A1   21 B1   22 B1   14 B2    8 A2   33 A1                 
  0.530   0.539   0.550   0.561   0.575   0.581   0.589   0.599
 34 A1   23 B1   35 A1   36 A1   24 B1   25 B1   37 A1    9 A2                 
  0.605   0.610   0.613   0.643   0.670   0.687   0.719   0.720
 26 B1   15 B2   38 A1   39 A1   27 B1   40 A1   16 B2   41 A1                 
  0.723   0.742   0.753   0.759   0.762   0.779   0.784   0.825
 28 B1   17 B2   10 A2   42 A1   29 B1   43 A1   18 B2   30 B1                 
  0.833   0.844   0.853   0.858   0.865   0.929   0.963   0.973
 11 A2   31 B1   44 A1   12 A2   19 B2   20 B2   45 A1   32 B1                 
  0.995   1.008   1.037   1.038   1.075   1.085   1.110   1.143
 33 B1   46 A1   21 B2   13 A2   47 A1   34 B1   22 B2   35 B1                 
  1.160   1.161   1.175   1.185   1.257   1.329   1.333   1.348
 48 A1   14 A2   36 B1   49 A1   50 A1   37 B1   51 A1   23 B2                 
  1.375   1.382   1.393   1.408   1.420   1.427   1.451   1.478
 52 A1   24 B2   53 A1   38 B1   15 A2   54 A1   39 B1   55 A1                 
  1.524   1.530   1.565   1.604   1.612   1.633   1.663   1.670
 56 A1   40 B1   25 B2   41 B1   57 A1   26 B2   42 B1   16 A2                 
  1.724   1.764   1.767   1.807   1.811   1.850   1.878   1.988
 27 B2   17 A2   58 A1   59 A1   43 B1   60 A1   44 B1   45 B1                 
  1.996   2.092   2.184   2.204   2.207   2.222   2.247   2.295
 61 A1   62 A1   18 A2   63 A1   46 B1   28 B2   47 B1   64 A1                 
  2.407   2.430   2.537   2.558   2.561   2.594   2.597   2.753
 48 B1   19 A2   29 B2   65 A1   49 B1   66 A1   30 B2   67 A1                 
  2.887   2.980   2.994   3.106   3.141   3.200   3.335   3.346
 20 A2   50 B1   51 B1   68 A1   69 A1   52 B1   53 B1   70 A1                 
  3.936  22.622  22.996  23.036  23.281  34.220  34.229
 71 A1   72 A1   73 A1   54 B1   74 A1   75 A1   55 B1                         
 
 Beta MOs, Restricted
 -- Occupied --                  
-15.577 -15.577 -11.318 -11.311 -11.311 -11.261  -1.314  -1.196
  1 B1    1 A1    2 A1    3 A1    2 B1    4 A1    5 A1    3 B1                 
 -1.078  -0.902  -0.890  -0.742  -0.704  -0.650  -0.600  -0.592
  6 A1    4 B1    7 A1    8 A1    5 B1    9 A1    6 B1   10 A1                 
 -0.577  -0.472  -0.421  -0.420  -0.380
  1 B2   11 A1    1 A2    7 B1    2 B2                                         
 -- Virtual --                   
  0.031   0.042   0.047   0.059   0.074   0.075   0.090   0.098
 12 A1    8 B1   13 A1   14 A1    2 A2    3 B2    9 B1    4 B2                 
  0.099   0.112   0.116   0.117   0.118   0.133   0.138   0.151
 15 A1    5 B2   16 A1   10 B1    3 A2   11 B1   17 A1   18 A1                 
  0.163   0.163   0.165   0.176   0.198   0.224   0.224   0.225
 12 B1   19 A1    6 B2   20 A1   13 B1    4 A2    7 B2   21 A1                 
  0.250   0.250   0.276   0.277   0.290   0.296   0.299   0.303
 22 A1   14 B1    8 B2   15 B1    9 B2   23 A1   24 A1   16 B1                 
  0.310   0.310   0.326   0.328   0.330   0.332   0.336   0.337
 25 A1   17 B1   26 A1    5 A2   10 B2   18 B1   27 A1    6 A2                 
  0.359   0.378   0.386   0.387   0.407   0.408   0.420   0.425
 28 A1   19 B1   11 B2   29 A1    7 A2   12 B2   30 A1   20 B1                 
  0.436   0.441   0.478   0.480   0.487   0.490   0.495   0.509
 13 B2   31 A1   32 A1   21 B1   22 B1   14 B2    8 A2   33 A1                 
  0.530   0.539   0.550   0.561   0.575   0.581   0.589   0.599
 34 A1   23 B1   35 A1   36 A1   24 B1   25 B1   37 A1    9 A2                 
  0.605   0.610   0.613   0.643   0.670   0.687   0.719   0.720
 26 B1   15 B2   38 A1   39 A1   27 B1   40 A1   16 B2   41 A1                 
  0.723   0.742   0.753   0.759   0.762   0.779   0.784   0.825
 28 B1   17 B2   10 A2   42 A1   29 B1   43 A1   18 B2   30 B1                 
  0.833   0.844   0.853   0.858   0.865   0.929   0.963   0.973
 11 A2   31 B1   44 A1   12 A2   19 B2   20 B2   45 A1   32 B1                 
  0.995   1.008   1.037   1.038   1.075   1.085   1.110   1.143
 33 B1   46 A1   21 B2   13 A2   47 A1   34 B1   22 B2   35 B1                 
  1.160   1.161   1.175   1.185   1.257   1.329   1.333   1.348
 48 A1   14 A2   36 B1   49 A1   50 A1   37 B1   51 A1   23 B2                 
  1.375   1.382   1.393   1.408   1.420   1.427   1.451   1.478
 52 A1   24 B2   53 A1   38 B1   15 A2   54 A1   39 B1   55 A1                 
  1.524   1.530   1.565   1.604   1.612   1.633   1.663   1.670
 56 A1   40 B1   25 B2   41 B1   57 A1   26 B2   42 B1   16 A2                 
  1.724   1.764   1.767   1.807   1.811   1.850   1.878   1.988
 27 B2   17 A2   58 A1   59 A1   43 B1   60 A1   44 B1   45 B1                 
  1.996   2.092   2.184   2.204   2.207   2.222   2.247   2.295
 61 A1   62 A1   18 A2   63 A1   46 B1   28 B2   47 B1   64 A1                 
  2.407   2.430   2.537   2.558   2.561   2.594   2.597   2.753
 48 B1   19 A2   29 B2   65 A1   49 B1   66 A1   30 B2   67 A1                 
  2.887   2.980   2.994   3.106   3.141   3.200   3.335   3.346
 20 A2   50 B1   51 B1   68 A1   69 A1   52 B1   53 B1   70 A1                 
  3.936  22.622  22.996  23.036  23.281  34.220  34.229
 71 A1   72 A1   73 A1   54 B1   74 A1   75 A1   55 B1                         

 Occupation and symmetry of molecular orbitals

 Point group: C2v (4 irreducible representations).

                           A1   A2   B1   B2    All 
 ----------------------------------------------------
 All molecular orbitals:
  - Alpha                  75   20   55   30    180 
  - Beta                   75   20   55   30    180 
 ----------------------------------------------------
 Alpha orbitals:
  - Frozen occupied        4    0    2    0     6   
  - Active occupied        7    1    5    2     15  
  - Active virtual         64   19   48   28    159 
  - Frozen virtual         0    0    0    0     0   
 ----------------------------------------------------
 Beta orbitals:
  - Frozen occupied        4    0    2    0     6   
  - Active occupied        7    1    5    2     15  
  - Active virtual         64   19   48   28    159 
  - Frozen virtual         0    0    0    0     0   
 ----------------------------------------------------

 Import integrals:   CPU 0.00 s  wall 0.00 s

 Import integrals:   CPU 115.92 s  wall 12.65 s

 MP2 amplitudes:   CPU 2.06 s  wall 1.77 s

Running a double precision version
           CCSD T amplitudes will be solved using DIIS.

           Start     Size      MaxIter   EConv     TConv     
           3         7         100       1.00e-06  1.00e-04  
 ------------------------------------------------------------------------------
           Energy (a.u.)   Ediff      Tdiff       Comment
 ------------------------------------------------------------------------------
          -263.61366321                           
     1    -263.60534609   8.32e-03   9.16e-01     
     2    -263.63413350   2.88e-02   1.31e-01     
     3    -263.63389853   2.35e-04   4.80e-02     
     4    -263.63671863   2.82e-03   1.49e-02     Switched to DIIS steps.
     5    -263.63792643   1.21e-03   1.26e-02     
     6    -263.63800340   7.70e-05   2.70e-03     
     7    -263.63799836   5.03e-06   1.42e-03     
     8    -263.63799877   4.13e-07   2.98e-04     
     9    -263.63800039   1.61e-06   1.42e-04     
    10    -263.63800074   3.54e-07   4.47e-05     
 ------------------------------------------------------------------------------
          -263.63800074                           CCSD T converged.

End of double precision
 SCF energy                 = -262.74943470
 MP2 energy                 = -263.61366321
 CCSD correlation energy    =   -0.88856605
 CCSD total energy          = -263.63800074

 CCSD  T1^2 = 0.0135  T2^2 = 0.3435  Leading amplitudes:

 Amplitude    Orbitals with energies
 -0.0327       1 (A2) A                  ->    2 (A2) A                   
              -0.4210                          0.0740                     
 -0.0327       1 (A2) B                  ->    2 (A2) B                   
              -0.4210                          0.0740                     
  0.0303       2 (B2) A                  ->    4 (B2) A                   
              -0.3804                          0.0984                     
  0.0303       2 (B2) B                  ->    4 (B2) B                   
              -0.3804                          0.0984                     

 Amplitude    Orbitals with energies
 -0.0607       1 (A2) A      1 (A2) B    ->    2 (A2) A      2 (A2) B     
              -0.4210       -0.4210            0.0740        0.0740       
  0.0607       1 (A2) A      1 (A2) B    ->    2 (A2) B      2 (A2) A     
              -0.4210       -0.4210            0.0740        0.0740       
  0.0607       1 (A2) B      1 (A2) A    ->    2 (A2) A      2 (A2) B     
              -0.4210       -0.4210            0.0740        0.0740       
 -0.0607       1 (A2) B      1 (A2) A    ->    2 (A2) B      2 (A2) A     
              -0.4210       -0.4210            0.0740        0.0740       

 Computing CCSD intermediates for later calculations in double precision
 Finished.

Running a double precision version
           CCSD Lambda amplitudes will be solved using DIIS.
           Start     Size      MaxIter   EConv     LConv     
           3         7         100       1.00e-06  1.00e-04  
 ------------------------------------------------------------------------------
            Enorm      Ldiff       Comment
 ------------------------------------------------------------------------------
     1     5.93e-02   4.64e-02     
     2     1.18e-02   1.58e-03     
     3     4.72e-03   2.00e-03     
     4     2.15e-03   5.20e-04     Switched to DIIS steps.
     5     7.37e-04   4.59e-04     
     6     3.20e-04   1.57e-04     
     7     9.05e-05   5.36e-05     
     8     3.47e-05   9.31e-06     
     9     1.11e-05   2.27e-06     
    10     4.20e-06   3.54e-07     
    11     1.79e-06   1.13e-07     
    12     5.83e-07   1.58e-08     
 ------------------------------------------------------------------------------
                                   CCSD Lambda converged.

 Computing density matrices in double precision...
           Orbital response amplitudes will be solved using DIIS.
           Start     Size      MaxIter   EConv     LConv     
           3         7         100       1.00e-06  1.00e-06  
 ------------------------------------------------------------------------------
            Enorm      Ldiff       Comment
 ------------------------------------------------------------------------------
     1     5.21e-02   2.53e-03     
     2     3.24e-02   1.08e-02     
     3     3.41e-02   1.22e-02     
     4     5.47e-03   1.21e-02     Switched to DIIS steps.
     5     1.07e-03   2.86e-04     
     6     3.43e-04   1.32e-04     
     7     1.68e-04   8.58e-06     
     8     6.82e-05   2.00e-06     
     9     1.22e-05   1.79e-06     
    10     8.62e-06   1.28e-06     
    11     1.03e-06   1.25e-07     
    12     2.78e-07   1.30e-07     
 ------------------------------------------------------------------------------
                                   Orbital response converged.

 Computing density matrices... Done.
 Reference state properties
 Relaxed dipole moment (a.u.): 0.969621 (X 0.000000, Y 0.000000, Z 0.969621)
 Relaxed R-squared (a.u.): 413.010358 (XX 193.450123, YY 27.259775, ZZ 192.300460)
 Gauge origin (a.u.): (0.000000, 0.000000, 0.000000)
 Relaxed angular momentum (a.u.) against gauge origin: 
 (X 0.000000i, Y 0.000000i, Z 0.000000i)
 Traces of the OPDMs: AA 21.000000, BB 21.000000
 Relaxed density matrix was written to a file for further analysis.
           CCSD Polarizability response will be solved using DIIS.
           Start     Size      MaxIter   EConv     XConv     
           3         7         100       1.00e-06  1.00e-06  
Performing DIIS for the x-component of dTdy
 ------------------------------------------------------------------------------
            Enorm      Xdiff       Comment
 ------------------------------------------------------------------------------
     1     1.65e+00   1.38e+00     
     2     1.09e+00   1.03e+00     
     3     6.11e-01   5.45e-01     
     4     1.83e-01   7.67e-01     Switched to DIIS steps.
     5     7.94e-02   1.34e-01     
     6     2.28e-02   5.92e-02     
     7     1.01e-02   6.65e-03     
     8     5.14e-03   2.34e-03     
     9     1.40e-03   8.88e-04     
    10     5.46e-04   9.21e-05     
    11     1.47e-04   3.35e-05     
    12     5.71e-05   4.98e-06     
    13     2.02e-05   6.21e-06     
    14     1.03e-05   6.71e-06     
    15     4.46e-06   6.13e-06     
    16     2.24e-06   2.83e-06     
    17     1.20e-06   1.46e-06     
    18     6.66e-07   5.87e-07     
 ------------------------------------------------------------------------------
                                   Polarizability X-amplitude response conv
Performing DIIS for the y-component of dTdy
 ------------------------------------------------------------------------------
            Enorm      Xdiff       Comment
 ------------------------------------------------------------------------------
     1     1.05e+00   8.88e-01     
     2     5.74e-01   5.13e-01     
     3     3.15e-01   2.63e-01     
     4     8.98e-02   3.10e-01     Switched to DIIS steps.
     5     5.06e-02   4.38e-02     
     6     2.50e-02   2.57e-02     
     7     7.09e-03   1.47e-02     
     8     2.98e-03   2.65e-03     
     9     1.44e-03   4.93e-04     
    10     7.40e-04   8.01e-05     
    11     2.74e-04   5.37e-07     
    12     1.01e-04   1.49e-06     
    13     4.03e-05   1.38e-05     
    14     2.15e-05   9.21e-06     
    15     1.29e-05   7.62e-06     
    16     7.68e-06   6.22e-06     
    17     3.56e-06   4.29e-06     
    18     1.54e-06   2.14e-06     
    19     8.60e-07   5.62e-07     
 ------------------------------------------------------------------------------
                                   Polarizability X-amplitude response conv
Performing DIIS for the z-component of dTdy
 ------------------------------------------------------------------------------
            Enorm      Xdiff       Comment
 ------------------------------------------------------------------------------
     1     1.68e+00   1.44e+00     
     2     1.09e+00   1.03e+00     
     3     6.03e-01   5.43e-01     
     4     1.70e-01   7.47e-01     Switched to DIIS steps.
     5     7.09e-02   1.15e-01     
     6     1.33e-02   4.99e-02     
     7     3.87e-03   3.12e-03     
     8     1.66e-03   7.20e-04     
     9     5.20e-04   9.72e-05     
    10     2.24e-04   9.32e-06     
    11     7.11e-05   2.58e-05     
    12     3.05e-05   1.97e-06     
    13     1.05e-05   1.95e-06     
    14     4.93e-06   2.57e-06     
    15     2.15e-06   2.08e-06     
    16     9.97e-07   1.01e-06     
    17     3.85e-07   5.59e-07     
 ------------------------------------------------------------------------------
                                   Polarizability X-amplitude response conv

           CCSD Polarizability response will be solved using DIIS.
           Start     Size      MaxIter   EConv     XConv     
           3         7         100       1.00e-06  1.00e-06  
Performing DIIS for the x-component of dZdy
 ------------------------------------------------------------------------------
            Enorm      Xdiff       Comment
 ------------------------------------------------------------------------------
     1     1.44e+00   1.26e+00     
     2     8.88e-01   8.33e-01     
     3     5.10e-01   4.60e-01     
     4     1.29e-01   6.62e-01     Switched to DIIS steps.
     5     6.53e-02   6.90e-02     
     6     2.02e-02   4.91e-02     
     7     8.57e-03   7.94e-03     
     8     4.17e-03   1.52e-03     
     9     1.19e-03   8.48e-04     
    10     4.59e-04   7.47e-05     
    11     1.25e-04   7.35e-06     
    12     4.74e-05   4.14e-06     
    13     1.64e-05   4.27e-06     
    14     8.20e-06   2.48e-06     
    15     3.89e-06   3.38e-06     
    16     2.05e-06   2.42e-06     
    17     1.05e-06   1.34e-06     
    18     5.63e-07   5.96e-07     
 ------------------------------------------------------------------------------
                                   Polarizability X-amplitude response conv
Performing DIIS for the y-component of dZdy
 ------------------------------------------------------------------------------
            Enorm      Xdiff       Comment
 ------------------------------------------------------------------------------
     1     9.66e-01   8.09e-01     
     2     5.21e-01   4.67e-01     
     3     2.87e-01   2.43e-01     
     4     7.80e-02   2.90e-01     Switched to DIIS steps.
     5     4.44e-02   3.40e-02     
     6     2.29e-02   2.39e-02     
     7     6.44e-03   1.38e-02     
     8     2.79e-03   2.25e-03     
     9     1.31e-03   5.60e-04     
    10     6.91e-04   8.86e-05     
    11     2.55e-04   4.81e-06     
    12     9.91e-05   4.16e-06     
    13     3.59e-05   8.14e-07     
    14     1.92e-05   5.65e-06     
    15     1.20e-05   5.67e-06     
    16     6.48e-06   6.23e-06     
    17     3.12e-06   3.92e-06     
    18     1.31e-06   1.93e-06     
    19     6.84e-07   6.31e-07     
 ------------------------------------------------------------------------------
                                   Polarizability X-amplitude response conv
Performing DIIS for the z-component of dZdy
 ------------------------------------------------------------------------------
            Enorm      Xdiff       Comment
 ------------------------------------------------------------------------------
     1     1.46e+00   1.28e+00     
     2     8.85e-01   8.34e-01     
     3     4.96e-01   4.50e-01     
     4     1.18e-01   6.20e-01     Switched to DIIS steps.
     5     5.50e-02   5.67e-02     
     6     1.13e-02   3.72e-02     
     7     3.14e-03   3.69e-03     
     8     1.38e-03   3.83e-04     
     9     4.29e-04   1.05e-04     
    10     1.87e-04   5.21e-06     
    11     5.63e-05   9.48e-06     
    12     2.43e-05   4.14e-06     
    13     7.96e-06   4.25e-06     
    14     3.69e-06   1.45e-07     
    15     1.66e-06   7.25e-07     
    16     8.47e-07   7.22e-07     
 ------------------------------------------------------------------------------
                                   Polarizability X-amplitude response conv

Static polarizability with asymmetric derivative approach

 Polarizability Tensor ALPHA_IJ, I,J=X,Y,Z (a.u.):
 ------------------------------------------------------------------------------
         67.78561056   -0.00000000   -0.00000000
         -0.00000000   37.49784044   -0.00000000
         -0.00000000   -0.00000000   70.18323052
 ------------------------------------------------------------------------------
 Isotropic polarizability: 1/3 * (a_xx + a_yy + a_zz)
 Isotropic polarizability in a.u. = 58.48889384
 Anisotropic polarizability: SQRT(0.5*((a_xx-a_yy)^2 + (a_yy-a_zz)^2 + (a_zz-a_xx)^2))
 Anisotropic polarizability in a.u. = 31.55497049
 ------------------------------------------------------------------------------

 CCSD calculation:   CPU 1886.38 s  wall 236.96 s

        Solving for EOMEE-CCSD B1 singlet states.

Running a double precision version
        EOMEE-CCSD/MP2 right amplitudes will be solved using Davidson.
        Amplitudes will be solved using standard  algorithm.
     Hard-coded thresholds: 
     LinDepThresh=1.00e-15  NormThresh=1.00e-06  ReorthogonThresh=1.00e-02

      Roots     MaxVec    MaxIter   Precond   Conv      Shift    
      1         120       60        1         1.00e-05  0.00e+00  
 ------------------------------------------------------------------------------
      Iter ConvRoots NVecs ResNorm Current eigenvalues (eV)
 ------------------------------------------------------------------------------
      0    0      1     1.85e-01   11.2722   
      1    0      2     1.31e-01   8.0743   
      2    0      3     1.25e-02   7.1741   
      3    0      4     2.74e-03   6.9656   
      4    0      5     4.26e-03   6.8722   
      5    0      6     1.33e-03   6.8148   
      6    0      7     5.64e-04   6.7915   
      7    0      8     9.53e-04   6.7731   
      8    0      9     4.05e-04   6.7560   
      9    0      10    6.70e-05   6.7490   
      10   0      11    5.55e-05   6.7489   
      11   0      12    9.38e-05   6.7474   
      12   0      13    2.35e-03   6.7365   
      13   0      14    2.25e-02   6.1696   
      14   0      15    1.12e-02   5.6913   
      15   0      16    3.40e-03   5.5352   
      16   0      17    7.37e-04   5.4869   
      17   0      18    2.51e-04   5.4725   
      18   0      19    3.88e-05   5.4720   
      19   1      20    9.82e-06   5.4705*  

     Davidson procedure converged

 EOMEE transition 1/B1
 Total energy = -263.43696339 a.u.  Excitation energy = 5.4705 eV.
 R0^2 = 0.0000  R1^2 = 0.8958  R2^2 = 0.1042  Res^2 = 9.82e-06
 Conv-d = yes

 Amplitude    Transitions between orbitals
  0.5107       2 (B2) A                  ->    2 (A2) A                   
  0.5107       2 (B2) B                  ->    2 (A2) B                   
  0.3130       1 (A2) A                  ->    4 (B2) A                   
  0.3130       1 (A2) B                  ->    4 (B2) B                   
 -0.2026       2 (B2) A                  ->    3 (A2) A                   
 -0.2026       2 (B2) B                  ->    3 (A2) B                   
 -0.1516       1 (A2) A                  ->    6 (B2) A                   
 -0.1516       1 (A2) B                  ->    6 (B2) B                   

              Summary of significant orbitals:

               Number  Type             Irrep      Energy
               19      Occ  Alpha       1 (A2)     -0.4210
               21      Occ  Alpha       2 (B2)     -0.3804
               19      Occ  Beta        1 (A2)     -0.4210
               21      Occ  Beta        2 (B2)     -0.3804
               26      Vir  Alpha       2 (A2)      0.0740
               34      Vir  Alpha       3 (A2)      0.1179
               29      Vir  Alpha       4 (B2)      0.0984
               40      Vir  Alpha       6 (B2)      0.1649
               26      Vir  Beta        2 (A2)      0.0740
               34      Vir  Beta        3 (A2)      0.1179
               29      Vir  Beta        4 (B2)      0.0984
               40      Vir  Beta        6 (B2)      0.1649


Running a double precision version
      EOM-CCSD/MP2 left amplitudes will be solved using Davidson.
        Amplitudes will be solved using MOM  algorithm.
     Hard-coded thresholds: 
     LinDepThresh=1.00e-15  NormThresh=1.00e-06  ReorthogonThresh=1.00e-02

      Roots     MaxVec    MaxIter   Precond   Conv      Shift    
      1         120       60        1         1.00e-05  0.00e+00  
 ------------------------------------------------------------------------------
      Iter ConvRoots NVecs ResNorm Current eigenvalues (eV)
 ------------------------------------------------------------------------------
      0    0      1     8.23e-03   5.4705   
      1    0      2     5.31e-03   5.4706   
      2    0      3     6.28e-04   5.4707   
      3    0      4     3.86e-05   5.4706   
      4    1      5     7.43e-06   5.4706*  

     Davidson procedure converged

Running a double precision version
           EOM amplitude response will be solved using DIIS.
           Start     Size      MaxIter   EConv     ZConv     
           3         7         100       1.00e-06  1.00e-06  
 ------------------------------------------------------------------------------
            Enorm      Zdiff       Comment
 ------------------------------------------------------------------------------
     1     7.65e-02   4.77e-02     
     2     2.72e-02   1.70e-02     
     3     1.27e-02   6.40e-03     
     4     2.89e-03   4.92e-03     Switched to DIIS steps.
     5     1.12e-03   5.98e-04     
     6     3.18e-04   1.82e-04     
     7     9.43e-05   1.39e-05     
     8     4.01e-05   1.69e-06     
     9     1.44e-05   4.08e-07     
    10     6.05e-06   1.26e-07     
    11     2.05e-06   1.41e-07     
    12     9.12e-07   3.48e-08     
 ------------------------------------------------------------------------------
                                   Amplitude response converged.

           Orbital response amplitudes will be solved using DIIS.
           Start     Size      MaxIter   EConv     LConv     
           3         7         100       1.00e-06  1.00e-06  
 ------------------------------------------------------------------------------
            Enorm      Ldiff       Comment
 ------------------------------------------------------------------------------
     1     6.65e-02   9.51e-04     
     2     3.59e-02   1.76e-02     
     3     2.92e-02   1.30e-02     
     4     4.67e-03   8.46e-03     Switched to DIIS steps.
     5     1.47e-03   3.76e-04     
     6     5.51e-04   2.50e-04     
     7     1.43e-04   1.88e-05     
     8     1.03e-04   8.45e-06     
     9     1.72e-05   3.41e-06     
    10     7.86e-06   1.87e-06     
    11     1.75e-06   3.83e-08     
    12     5.83e-07   2.29e-07     
 ------------------------------------------------------------------------------
                                   Orbital response converged.

 Excited state properties for  EOMEE-CCSD transition 1/B1
 Relaxed dipole moment (a.u.): 0.904968 (X 0.000000, Y 0.000000, Z 0.904968)
 Relaxed R-squared (a.u.): 414.452269 (XX 194.668494, YY 27.431752, ZZ 192.352022)
 Gauge origin (a.u.): (0.000000, 0.000000, 0.000000)
 Relaxed angular momentum (a.u.) against gauge origin: 
 (X 0.000000i, Y 0.000000i, Z 0.000000i)
 Traces of the OPDMs: AA 21.000000, BB 21.000000

           EOM Polarizability response will be solved using DIIS.
           Start     Size      MaxIter   EConv     XConv     
           3         7         100       1.00e-06  1.00e-06  
Performing DIIS for the x-component of dRdy
 ------------------------------------------------------------------------------
            Enorm      Xdiff       Comment
 ------------------------------------------------------------------------------
     1     1.12e+00   1.07e+00     
     2     8.09e-01   7.76e-01     
     3     5.72e-01   5.42e-01     
     4     1.39e-01   1.26e+00     Switched to DIIS steps.
     5     7.14e-02   2.50e-01     
     6     4.43e-02   2.41e-02     
     7     2.46e-02   2.30e-02     
     8     1.54e-02   2.40e-02     
     9     7.87e-03   4.54e-03     
    10     5.14e-03   3.05e-03     
    11     2.44e-03   9.48e-05     
    12     1.64e-03   7.92e-04     
    13     1.12e-03   7.49e-04     
    14     7.91e-04   1.15e-04     
    15     4.53e-04   1.57e-04     
    16     2.41e-04   1.69e-05     
    17     1.31e-04   1.43e-04     
    18     7.68e-05   1.11e-04     
    19     4.84e-05   4.90e-05     
    20     2.79e-05   5.90e-06     
    21     1.56e-05   1.42e-05     
    22     6.00e-06   4.28e-06     
    23     3.84e-06   1.11e-06     
    24     1.71e-06   3.98e-07     
    25     8.62e-07   3.41e-07     
 ------------------------------------------------------------------------------
                                   Polarizability X-amplitude response conv
Performing DIIS for the y-component of dRdy
 ------------------------------------------------------------------------------
            Enorm      Xdiff       Comment
 ------------------------------------------------------------------------------
     1     8.46e-01   7.95e-01     
     2     6.25e-01   5.93e-01     
     3     4.53e-01   4.17e-01     
     4     2.27e-01   9.60e-01     Switched to DIIS steps.
     5     2.04e-01   1.97e-01     
     6     2.09e-01   2.34e-01     
     7     2.05e-01   2.08e-01     
     8     1.99e-01   1.15e-01     
     9     1.42e-01   9.11e-01     
    10     1.15e-01   1.17e+00     
    11     9.54e-02   1.25e+00     
    12     8.39e-02   2.41e-01     
    13     6.85e-02   9.49e-01     
    14     5.28e-02   1.04e-01     
    15     3.60e-02   3.97e-01     
    16     1.71e-02   1.13e-02     
    17     7.80e-03   1.93e-01     
    18     4.31e-03   1.01e-01     
    19     2.64e-03   2.40e-02     
    20     1.55e-03   1.14e-02     
    21     9.09e-04   1.23e-02     
    22     5.92e-04   1.80e-03     
    23     4.76e-04   2.89e-03     
    24     2.19e-04   8.72e-03     
    25     1.26e-04   3.47e-03     
    26     9.67e-05   1.27e-03     
    27     7.97e-05   1.16e-03     
    28     6.21e-05   1.14e-03     
    29     3.86e-05   8.11e-04     
    30     2.30e-05   8.89e-05     
    31     1.23e-05   1.12e-04     
    32     7.11e-06   1.74e-05     
    33     4.25e-06   6.01e-06     
    34     2.60e-06   1.25e-05     
    35     1.36e-06   7.25e-06     
    36     9.17e-07   5.90e-07     
 ------------------------------------------------------------------------------
                                   Polarizability X-amplitude response conv
Performing DIIS for the z-component of dRdy
 ------------------------------------------------------------------------------
            Enorm      Xdiff       Comment
 ------------------------------------------------------------------------------
     1     1.04e+00   9.69e-01     
     2     7.63e-01   7.29e-01     
     3     5.34e-01   5.00e-01     
     4     3.23e-01   1.12e+00     Switched to DIIS steps.
     5     3.24e-01   1.36e-03     
     6     1.63e-01   1.88e-02     
     7     8.05e-02   2.09e-01     
     8     5.04e-02   1.26e-02     
     9     2.39e-02   3.11e-02     
    10     1.20e-02   1.49e-02     
    11     6.39e-03   1.03e-02     
    12     3.88e-03   2.50e-04     
    13     2.73e-03   1.43e-03     
    14     2.12e-03   9.96e-05     
    15     1.47e-03   2.46e-04     
    16     7.79e-04   1.25e-03     
    17     3.83e-04   6.22e-04     
    18     2.98e-04   1.85e-04     
    19     1.74e-04   5.74e-05     
    20     1.62e-04   2.75e-05     
    21     1.47e-04   4.75e-05     
    22     1.53e-04   2.13e-05     
    23     1.21e-04   1.52e-05     
    24     5.57e-05   1.80e-05     
    25     2.08e-05   2.46e-06     
    26     1.40e-05   1.20e-05     
    27     9.72e-06   6.55e-06     
    28     4.46e-06   1.52e-05     
    29     2.22e-06   3.15e-06     
    30     1.15e-06   8.38e-07     
    31     6.78e-07   2.14e-07     
 ------------------------------------------------------------------------------
                                   Polarizability X-amplitude response conv

           EOM Polarizability response will be solved using DIIS.
           Start     Size      MaxIter   EConv     XConv     
           3         7         100       1.00e-06  1.00e-06  
Performing DIIS for the x-component of dLdy
 ------------------------------------------------------------------------------
            Enorm      Xdiff       Comment
 ------------------------------------------------------------------------------
     1     1.38e+00   1.29e+00     
     2     8.43e-01   7.88e-01     
     3     5.44e-01   4.88e-01     
     4     1.70e-01   8.11e-01     Switched to DIIS steps.
     5     8.33e-02   2.07e-01     
     6     4.37e-02   6.63e-02     
     7     2.59e-02   1.76e-02     
     8     1.63e-02   1.79e-02     
     9     9.11e-03   1.91e-03     
    10     5.39e-03   3.45e-03     
    11     2.27e-03   2.70e-04     
    12     1.36e-03   3.25e-04     
    13     7.74e-04   2.96e-04     
    14     5.47e-04   1.68e-04     
    15     3.76e-04   3.28e-05     
    16     2.56e-04   9.02e-06     
    17     1.35e-04   6.02e-05     
    18     6.92e-05   2.74e-05     
    19     4.41e-05   1.13e-05     
    20     2.37e-05   1.05e-05     
    21     1.28e-05   6.14e-06     
    22     6.19e-06   2.24e-06     
    23     3.80e-06   6.89e-07     
    24     1.86e-06   1.06e-06     
    25     1.08e-06   6.11e-07     
    26     7.11e-07   1.83e-07     
 ------------------------------------------------------------------------------
                                   Polarizability tX-amplitude response con
Performing DIIS for the y-component of dLdy
 ------------------------------------------------------------------------------
            Enorm      Xdiff       Comment
 ------------------------------------------------------------------------------
     1     1.09e+00   1.02e+00     
     2     6.95e-01   6.39e-01     
     3     4.73e-01   4.10e-01     
     4     2.26e-01   7.51e-01     Switched to DIIS steps.
     5     1.72e-01   3.12e-01     
     6     1.74e-01   1.11e-01     
     7     1.74e-01   9.39e-03     
     8     1.73e-01   1.36e-02     
     9     1.38e-01   4.51e-03     
    10     1.09e-01   7.02e-01     
    11     8.69e-02   1.19e+00     
    12     7.76e-02   2.72e-01     
    13     6.76e-02   4.61e-01     
    14     5.67e-02   5.53e-03     
    15     3.73e-02   6.29e-01     
    16     1.99e-02   3.39e-04     
    17     1.14e-02   1.33e-01     
    18     5.70e-03   7.84e-02     
    19     3.04e-03   5.35e-02     
    20     1.71e-03   8.50e-03     
    21     8.06e-04   1.34e-02     
    22     5.27e-04   3.81e-03     
    23     3.91e-04   3.53e-04     
    24     2.19e-04   2.32e-03     
    25     1.63e-04   1.80e-03     
    26     1.40e-04   4.35e-04     
    27     1.28e-04   2.53e-04     
    28     1.19e-04   3.78e-04     
    29     1.08e-04   5.29e-04     
    30     7.83e-05   1.74e-03     
    31     5.02e-05   1.26e-03     
    32     2.91e-05   1.74e-04     
    33     1.31e-05   3.47e-04     
    34     7.60e-06   1.68e-05     
    35     5.10e-06   5.78e-05     
    36     3.07e-06   1.94e-05     
    37     1.44e-06   3.41e-05     
    38     8.90e-07   1.30e-05     
    39     5.31e-07   1.13e-05     
    40     3.21e-07   7.73e-06     
    41     2.35e-07   1.37e-06     
    42     1.63e-07   1.74e-06     
    43     1.23e-07   5.97e-07     
 ------------------------------------------------------------------------------
                                   Polarizability tX-amplitude response con
Performing DIIS for the z-component of dLdy
 ------------------------------------------------------------------------------
            Enorm      Xdiff       Comment
 ------------------------------------------------------------------------------
     1     1.32e+00   1.23e+00     
     2     8.01e-01   7.51e-01     
     3     5.13e-01   4.56e-01     
     4     2.29e-01   6.88e-01     Switched to DIIS steps.
     5     3.16e-01   1.57e-01     
     6     2.83e-01   3.05e-02     
     7     7.62e-02   8.81e-02     
     8     5.02e-02   2.93e-02     
     9     2.67e-02   3.01e-02     
    10     1.44e-02   1.13e-02     
    11     6.66e-03   8.11e-03     
    12     4.36e-03   4.94e-04     
    13     3.00e-03   8.75e-04     
    14     2.30e-03   4.97e-04     
    15     1.46e-03   1.19e-04     
    16     7.37e-04   9.26e-04     
    17     3.44e-04   3.20e-04     
    18     2.17e-04   5.46e-05     
    19     1.33e-04   2.70e-05     
    20     9.34e-05   8.42e-06     
    21     1.18e-04   1.36e-05     
    22     1.23e-04   1.01e-05     
    23     1.10e-04   6.45e-06     
    24     1.09e-04   5.52e-06     
    25     1.12e-04   8.23e-06     
    26     6.92e-05   1.92e-05     
    27     4.85e-05   2.83e-06     
    28     1.18e-05   2.27e-06     
    29     5.63e-06   2.01e-06     
    30     2.85e-06   1.21e-06     
    31     2.33e-06   1.48e-06     
    32     1.52e-06   1.14e-06     
    33     7.11e-07   3.99e-07     
 ------------------------------------------------------------------------------
                                   Polarizability tX-amplitude response con

           CCSD Polarizability response will be solved using DIIS.
           Start     Size      MaxIter   EConv     XConv     
           3         7         100       1.00e-06  1.00e-06  
Performing DIIS for the x-component of dZdy
 ------------------------------------------------------------------------------
            Enorm      Xdiff       Comment
 ------------------------------------------------------------------------------
     1     6.70e-01   6.20e-01     
     2     3.68e-01   3.46e-01     
     3     2.09e-01   1.90e-01     
     4     4.10e-02   2.37e-01     Switched to DIIS steps.
     5     1.91e-02   2.16e-02     
     6     6.47e-03   9.41e-03     
     7     2.51e-03   1.58e-03     
     8     1.16e-03   3.56e-04     
     9     5.52e-04   1.47e-05     
    10     2.44e-04   7.96e-06     
    11     7.69e-05   1.98e-05     
    12     2.73e-05   3.66e-07     
    13     1.20e-05   3.85e-06     
    14     5.47e-06   3.62e-06     
    15     2.59e-06   2.56e-06     
    16     1.16e-06   1.23e-06     
    17     5.69e-07   4.48e-07     
 ------------------------------------------------------------------------------
                                   Polarizability X-amplitude response conv
Performing DIIS for the y-component of dZdy
 ------------------------------------------------------------------------------
            Enorm      Xdiff       Comment
 ------------------------------------------------------------------------------
     1     4.68e-01   4.15e-01     
     2     2.39e-01   2.08e-01     
     3     1.37e-01   1.11e-01     
     4     4.42e-02   1.32e-01     Switched to DIIS steps.
     5     2.40e-02   2.78e-02     
     6     1.40e-02   1.27e-02     
     7     4.18e-03   9.90e-03     
     8     1.39e-03   2.70e-03     
     9     5.49e-04   3.57e-04     
    10     2.65e-04   1.03e-04     
    11     1.11e-04   1.68e-05     
    12     5.24e-05   5.30e-06     
    13     2.50e-05   2.38e-06     
    14     1.06e-05   4.03e-06     
    15     6.69e-06   3.54e-06     
    16     3.46e-06   3.64e-06     
    17     1.84e-06   2.27e-06     
    18     7.34e-07   1.22e-06     
    19     3.28e-07   5.36e-07     
 ------------------------------------------------------------------------------
                                   Polarizability X-amplitude response conv
Performing DIIS for the z-component of dZdy
 ------------------------------------------------------------------------------
            Enorm      Xdiff       Comment
 ------------------------------------------------------------------------------
     1     6.68e-01   6.18e-01     
     2     3.59e-01   3.38e-01     
     3     2.00e-01   1.82e-01     
     4     3.29e-02   2.19e-01     Switched to DIIS steps.
     5     1.55e-02   1.53e-02     
     6     3.98e-03   6.43e-03     
     7     1.01e-03   6.82e-04     
     8     3.27e-04   1.66e-04     
     9     1.18e-04   2.67e-05     
    10     4.86e-05   2.47e-06     
    11     1.36e-05   7.91e-06     
    12     5.66e-06   2.62e-07     
    13     2.32e-06   5.04e-07     
    14     1.06e-06   5.43e-07     
    15     4.25e-07   2.50e-07     
 ------------------------------------------------------------------------------
                                   Polarizability X-amplitude response conv

Static polarizability with asymmetric derivative approach

 Polarizability Tensor ALPHA_IJ, I,J=X,Y,Z (a.u.):
 ------------------------------------------------------------------------------
         67.20855505   -0.00000000   -0.00000000
         -0.00000000   40.42121167   -0.00000000
         -0.00000000   -0.00000000   69.70911657
 ------------------------------------------------------------------------------
 Isotropic polarizability: 1/3 * (a_xx + a_yy + a_zz)
 Isotropic polarizability in a.u. = 59.11296110
 Anisotropic polarizability: SQRT(0.5*((a_xx-a_yy)^2 + (a_yy-a_zz)^2 + (a_zz-a_xx)^2))
 Anisotropic polarizability in a.u. = 28.12113037
 ------------------------------------------------------------------------------
        Solving for EOMEE-CCSD B2 singlet states.

Running a double precision version
        EOMEE-CCSD/MP2 right amplitudes will be solved using Davidson.
        Amplitudes will be solved using standard  algorithm.
     Hard-coded thresholds: 
     LinDepThresh=1.00e-15  NormThresh=1.00e-06  ReorthogonThresh=1.00e-02

      Roots     MaxVec    MaxIter   Precond   Conv      Shift    
      1         120       60        1         1.00e-05  0.00e+00  
 ------------------------------------------------------------------------------
      Iter ConvRoots NVecs ResNorm Current eigenvalues (eV)
 ------------------------------------------------------------------------------
      0    0      1     1.05e-01   10.2235   
      1    0      2     6.58e-02   8.3610   
      2    0      3     1.33e-02   7.6996   
      3    0      4     2.54e-03   7.5023   
      4    0      5     1.06e-03   7.4505   
      5    0      6     3.39e-04   7.4351   
      6    0      7     1.10e-04   7.4293   
      7    0      8     1.43e-04   7.4265   
      8    0      9     8.47e-05   7.4225   
      9    0      10    1.48e-04   7.4194   
      10   0      11    7.52e-02   5.9326   
      11   0      12    1.33e-02   4.8227   
      12   0      13    2.38e-03   4.6463   
      13   0      14    5.86e-04   4.6105   
      14   0      15    2.76e-04   4.6011   
      15   0      16    1.90e-04   4.5906   
      16   0      17    6.55e-05   4.5910   
      17   0      18    1.32e-05   4.5876   
      18   1      19    3.77e-06   4.5882*  

     Davidson procedure converged

 EOMEE transition 1/B2
 Total energy = -263.46938853 a.u.  Excitation energy = 4.5882 eV.
 R0^2 = 0.0000  R1^2 = 0.9055  R2^2 = 0.0945  Res^2 = 3.77e-06
 Conv-d = yes

 Amplitude    Transitions between orbitals
  0.6072       7 (B1) A                  ->    2 (A2) A                   
  0.6072       7 (B1) B                  ->    2 (A2) B                   
 -0.2472       7 (B1) A                  ->    3 (A2) A                   
 -0.2472       7 (B1) B                  ->    3 (A2) B                   
 -0.1081       7 (B1) A                  ->    4 (A2) A                   
 -0.1081       7 (B1) B                  ->    4 (A2) B                   

              Summary of significant orbitals:

               Number  Type             Irrep      Energy
               20      Occ  Alpha       7 (B1)     -0.4203
               20      Occ  Beta        7 (B1)     -0.4203
               26      Vir  Alpha       2 (A2)      0.0740
               34      Vir  Alpha       3 (A2)      0.1179
               43      Vir  Alpha       4 (A2)      0.2244
               26      Vir  Beta        2 (A2)      0.0740
               34      Vir  Beta        3 (A2)      0.1179
               43      Vir  Beta        4 (A2)      0.2244


Running a double precision version
      EOM-CCSD/MP2 left amplitudes will be solved using Davidson.
        Amplitudes will be solved using MOM  algorithm.
     Hard-coded thresholds: 
     LinDepThresh=1.00e-15  NormThresh=1.00e-06  ReorthogonThresh=1.00e-02

      Roots     MaxVec    MaxIter   Precond   Conv      Shift    
      1         120       60        1         1.00e-05  0.00e+00  
 ------------------------------------------------------------------------------
      Iter ConvRoots NVecs ResNorm Current eigenvalues (eV)
 ------------------------------------------------------------------------------
      0    0      1     1.13e-02   4.5882   
      1    0      2     5.52e-03   4.5879   
      2    0      3     4.74e-04   4.5879   
      3    0      4     2.73e-05   4.5879   
      4    1      5     5.72e-06   4.5879*  

     Davidson procedure converged

Running a double precision version
           EOM amplitude response will be solved using DIIS.
           Start     Size      MaxIter   EConv     ZConv     
           3         7         100       1.00e-06  1.00e-06  
 ------------------------------------------------------------------------------
            Enorm      Zdiff       Comment
 ------------------------------------------------------------------------------
     1     7.89e-02   4.80e-02     
     2     2.91e-02   1.75e-02     
     3     1.49e-02   6.96e-03     
     4     4.52e-03   5.98e-03     Switched to DIIS steps.
     5     2.08e-03   1.18e-03     
     6     6.27e-04   4.92e-04     
     7     1.84e-04   6.00e-05     
     8     7.36e-05   1.31e-05     
     9     2.74e-05   4.73e-08     
    10     1.20e-05   4.32e-07     
    11     3.58e-06   4.76e-07     
    12     1.42e-06   8.30e-08     
    13     4.90e-07   6.08e-08     
 ------------------------------------------------------------------------------
                                   Amplitude response converged.

           Orbital response amplitudes will be solved using DIIS.
           Start     Size      MaxIter   EConv     LConv     
           3         7         100       1.00e-06  1.00e-06  
 ------------------------------------------------------------------------------
            Enorm      Ldiff       Comment
 ------------------------------------------------------------------------------
     1     1.42e-01   4.65e-02     
     2     1.57e-01   3.71e-02     
     3     2.10e-01   8.64e-02     
     4     1.22e-02   1.06e-01     Switched to DIIS steps.
     5     1.71e-03   1.20e-03     
     6     1.19e-03   6.18e-04     
     7     4.00e-04   1.71e-04     
     8     8.33e-05   6.33e-05     
     9     2.97e-05   2.17e-05     
    10     1.23e-05   2.43e-06     
    11     1.88e-06   6.21e-07     
    12     9.89e-07   3.37e-07     
 ------------------------------------------------------------------------------
                                   Orbital response converged.

 Excited state properties for  EOMEE-CCSD transition 1/B2
 Relaxed dipole moment (a.u.): 0.261894 (X 0.000000, Y 0.000000, Z 0.261894)
 Relaxed R-squared (a.u.): 412.493057 (XX 191.898966, YY 28.585640, ZZ 192.008450)
 Gauge origin (a.u.): (0.000000, 0.000000, 0.000000)
 Relaxed angular momentum (a.u.) against gauge origin: 
 (X 0.000000i, Y 0.000000i, Z 0.000000i)
 Traces of the OPDMs: AA 21.000000, BB 21.000000

           EOM Polarizability response will be solved using DIIS.
           Start     Size      MaxIter   EConv     XConv     
           3         7         100       1.00e-06  1.00e-06  
Performing DIIS for the x-component of dRdy
 ------------------------------------------------------------------------------
            Enorm      Xdiff       Comment
 ------------------------------------------------------------------------------
     1     1.60e+00   1.46e+00     
     2     1.54e+00   1.49e+00     
     3     1.24e+00   1.18e+00     
     4     8.25e-01   3.90e+00     Switched to DIIS steps.
     5     6.17e-01   1.93e+00     
     6     3.19e-01   3.71e+00     
     7     1.52e-01   1.40e+00     
     8     7.56e-02   7.13e-01     
     9     2.78e-02   2.41e-01     
    10     1.65e-02   1.32e-02     
    11     7.43e-03   3.83e-03     
    12     4.14e-03   4.28e-03     
    13     2.17e-03   9.45e-04     
    14     1.70e-03   1.40e-03     
    15     1.37e-03   1.99e-03     
    16     1.23e-03   5.34e-04     
    17     1.09e-03   3.39e-04     
    18     8.42e-04   1.05e-03     
    19     4.57e-04   1.31e-03     
    20     2.86e-04   6.16e-04     
    21     1.29e-04   2.11e-04     
    22     4.55e-05   2.60e-04     
    23     2.71e-05   3.04e-05     
    24     1.77e-05   1.33e-05     
    25     1.02e-05   3.59e-05     
    26     5.33e-06   2.93e-05     
    27     3.51e-06   5.43e-06     
    28     2.38e-06   6.57e-06     
    29     2.07e-06   1.96e-06     
    30     1.50e-06   6.58e-06     
    31     9.28e-07   6.32e-06     
    32     7.67e-07   1.25e-06     
    33     6.29e-07   1.51e-07     
 ------------------------------------------------------------------------------
                                   Polarizability X-amplitude response conv
Performing DIIS for the y-component of dRdy
 ------------------------------------------------------------------------------
            Enorm      Xdiff       Comment
 ------------------------------------------------------------------------------
     1     6.89e-01   6.17e-01     
     2     5.67e-01   5.41e-01     
     3     3.87e-01   3.62e-01     
     4     1.68e-01   7.86e-01     Switched to DIIS steps.
     5     9.87e-02   2.05e-01     
     6     3.50e-02   1.90e-01     
     7     1.82e-02   2.47e-02     
     8     9.59e-03   1.91e-02     
     9     4.47e-03   6.31e-03     
    10     3.00e-03   6.19e-04     
    11     1.75e-03   3.07e-04     
    12     8.11e-04   4.02e-04     
    13     3.49e-04   2.59e-04     
    14     2.18e-04   1.06e-04     
    15     1.05e-04   1.53e-04     
    16     4.89e-05   4.33e-05     
    17     2.22e-05   1.02e-05     
    18     1.08e-05   1.47e-05     
    19     4.85e-06   8.46e-06     
    20     2.97e-06   2.95e-06     
    21     1.61e-06   1.92e-06     
    22     8.96e-07   5.57e-07     
 ------------------------------------------------------------------------------
                                   Polarizability X-amplitude response conv
Performing DIIS for the z-component of dRdy
 ------------------------------------------------------------------------------
            Enorm      Xdiff       Comment
 ------------------------------------------------------------------------------
     1     7.96e-01   5.41e-01     
     2     1.24e+00   1.02e+00     
     3     6.81e-01   5.35e-01     
     4     2.01e+00   1.75e+00     Switched to DIIS steps.
     5     1.47e+00   1.17e+00     
     6     1.96e-01   4.30e-01     
     7     1.43e-01   2.90e-01     
     8     7.36e-02   1.25e-01     
     9     3.50e-02   2.77e-02     
    10     3.34e-02   2.86e-02     
    11     1.98e-02   7.97e-03     
    12     8.61e-03   2.78e-02     
    13     5.54e-03   1.32e-03     
    14     3.02e-03   3.25e-03     
    15     8.93e-04   7.98e-04     
    16     7.19e-04   3.83e-04     
    17     5.58e-04   4.77e-04     
    18     7.50e-04   5.17e-05     
    19     6.82e-04   3.78e-04     
    20     5.74e-04   5.34e-04     
    21     6.02e-04   2.12e-04     
    22     6.58e-04   5.29e-05     
    23     4.97e-04   3.55e-04     
    24     3.69e-04   2.32e-04     
    25     3.25e-04   8.94e-05     
    26     2.44e-04   5.27e-05     
    27     2.10e-04   4.69e-05     
    28     1.16e-04   4.78e-05     
    29     6.48e-05   5.82e-05     
    30     5.51e-05   5.06e-05     
    31     2.14e-05   1.25e-05     
    32     1.25e-05   1.67e-06     
    33     7.07e-06   2.57e-07     
    34     3.12e-06   4.11e-06     
    35     1.03e-06   1.17e-06     
    36     7.07e-07   2.30e-07     
 ------------------------------------------------------------------------------
                                   Polarizability X-amplitude response conv

           EOM Polarizability response will be solved using DIIS.
           Start     Size      MaxIter   EConv     XConv     
           3         7         100       1.00e-06  1.00e-06  
Performing DIIS for the x-component of dLdy
 ------------------------------------------------------------------------------
            Enorm      Xdiff       Comment
 ------------------------------------------------------------------------------
     1     1.82e+00   1.62e+00     
     2     1.55e+00   1.46e+00     
     3     1.21e+00   1.10e+00     
     4     8.58e-01   2.97e+00     Switched to DIIS steps.
     5     6.89e-01   1.30e+00     
     6     3.91e-01   3.45e+00     
     7     1.99e-01   1.77e+00     
     8     1.05e-01   1.15e+00     
     9     4.73e-02   3.04e-01     
    10     3.56e-02   3.36e-02     
    11     2.84e-02   2.26e-02     
    12     2.59e-02   8.02e-03     
    13     2.32e-02   2.65e-02     
    14     2.05e-02   1.06e-02     
    15     1.36e-02   1.76e-02     
    16     7.27e-03   9.93e-03     
    17     3.22e-03   6.16e-03     
    18     1.85e-03   8.14e-04     
    19     9.52e-04   1.92e-03     
    20     5.28e-04   1.29e-03     
    21     2.62e-04   1.43e-03     
    22     1.82e-04   6.21e-04     
    23     1.31e-04   6.20e-04     
    24     8.45e-05   4.71e-04     
    25     4.70e-05   3.51e-04     
    26     2.65e-05   1.77e-04     
    27     1.47e-05   7.95e-05     
    28     8.11e-06   5.27e-05     
    29     4.56e-06   2.78e-05     
    30     2.89e-06   9.69e-06     
    31     2.07e-06   7.51e-06     
    32     1.77e-06   2.48e-07     
    33     1.45e-06   1.74e-06     
    34     1.12e-06   1.35e-06     
    35     6.67e-07   3.08e-06     
    36     3.07e-07   2.29e-06     
    37     2.02e-07   1.55e-07     
 ------------------------------------------------------------------------------
                                   Polarizability tX-amplitude response con
Performing DIIS for the y-component of dLdy
 ------------------------------------------------------------------------------
            Enorm      Xdiff       Comment
 ------------------------------------------------------------------------------
     1     1.02e+00   9.45e-01     
     2     6.65e-01   6.14e-01     
     3     4.32e-01   3.79e-01     
     4     1.87e-01   6.64e-01     Switched to DIIS steps.
     5     1.10e-01   1.75e-01     
     6     4.60e-02   1.67e-01     
     7     1.82e-02   4.82e-02     
     8     1.11e-02   1.56e-02     
     9     4.93e-03   5.56e-03     
    10     3.14e-03   4.28e-04     
    11     1.72e-03   1.33e-05     
    12     1.03e-03   3.25e-04     
    13     4.33e-04   5.10e-05     
    14     2.59e-04   2.55e-05     
    15     1.37e-04   4.41e-05     
    16     7.74e-05   4.32e-05     
    17     4.44e-05   5.06e-05     
    18     1.97e-05   3.61e-05     
    19     1.35e-05   8.66e-06     
    20     7.66e-06   7.16e-06     
    21     3.30e-06   3.64e-06     
    22     1.59e-06   1.57e-06     
    23     8.23e-07   9.91e-07     
 ------------------------------------------------------------------------------
                                   Polarizability tX-amplitude response con
Performing DIIS for the z-component of dLdy
 ------------------------------------------------------------------------------
            Enorm      Xdiff       Comment
 ------------------------------------------------------------------------------
     1     1.33e+00   9.37e-01     
     2     1.91e+00   1.49e+00     
     3     1.13e+00   8.33e-01     
     4     3.25e+00   2.81e+00     Switched to DIIS steps.
     5     1.79e+00   2.94e+00     
     6     2.67e-01   5.58e-01     
     7     1.43e-01   2.40e-01     
     8     4.76e-02   6.49e-02     
     9     2.08e-02   3.81e-02     
    10     1.89e-02   5.16e-03     
    11     1.04e-02   2.67e-03     
    12     6.53e-03   3.76e-03     
    13     3.81e-03   4.50e-04     
    14     2.57e-03   4.47e-04     
    15     1.29e-03   1.64e-04     
    16     4.59e-04   4.48e-04     
    17     2.17e-04   1.81e-04     
    18     1.08e-04   2.63e-05     
    19     9.39e-05   2.19e-06     
    20     9.24e-05   3.27e-06     
    21     1.34e-04   5.05e-06     
    22     9.72e-05   6.52e-06     
    23     6.38e-05   1.19e-05     
    24     4.99e-05   1.24e-05     
    25     1.29e-05   1.20e-05     
    26     9.03e-06   6.08e-07     
    27     4.64e-06   4.91e-07     
    28     2.87e-06   9.80e-07     
    29     1.06e-06   1.82e-06     
    30     5.62e-07   9.78e-07     
 ------------------------------------------------------------------------------
                                   Polarizability tX-amplitude response con

           CCSD Polarizability response will be solved using DIIS.
           Start     Size      MaxIter   EConv     XConv     
           3         7         100       1.00e-06  1.00e-06  
Performing DIIS for the x-component of dZdy
 ------------------------------------------------------------------------------
            Enorm      Xdiff       Comment
 ------------------------------------------------------------------------------
     1     8.89e-01   6.43e-01     
     2     3.92e-01   2.99e-01     
     3     2.09e-01   1.42e-01     
     4     5.03e-02   1.38e-01     Switched to DIIS steps.
     5     2.12e-02   2.38e-02     
     6     7.74e-03   8.40e-03     
     7     3.18e-03   1.69e-03     
     8     1.55e-03   4.42e-04     
     9     6.77e-04   2.06e-04     
    10     3.29e-04   3.96e-05     
    11     1.01e-04   9.60e-06     
    12     4.01e-05   1.62e-06     
    13     1.53e-05   3.36e-06     
    14     6.46e-06   2.54e-06     
    15     2.68e-06   1.75e-06     
    16     1.23e-06   7.61e-07     
    17     5.78e-07   3.12e-07     
 ------------------------------------------------------------------------------
                                   Polarizability X-amplitude response conv
Performing DIIS for the y-component of dZdy
 ------------------------------------------------------------------------------
            Enorm      Xdiff       Comment
 ------------------------------------------------------------------------------
     1     5.06e-01   4.77e-01     
     2     2.64e-01   2.41e-01     
     3     1.48e-01   1.30e-01     
     4     3.94e-02   1.54e-01     Switched to DIIS steps.
     5     1.94e-02   2.54e-02     
     6     8.37e-03   9.99e-03     
     7     3.54e-03   4.95e-03     
     8     1.36e-03   1.42e-03     
     9     7.26e-04   2.12e-04     
    10     3.38e-04   4.29e-05     
    11     1.41e-04   9.45e-06     
    12     4.71e-05   2.96e-07     
    13     2.10e-05   7.33e-06     
    14     1.07e-05   6.99e-06     
    15     6.80e-06   4.06e-06     
    16     4.21e-06   3.19e-06     
    17     1.47e-06   2.95e-06     
    18     6.79e-07   9.25e-07     
 ------------------------------------------------------------------------------
                                   Polarizability X-amplitude response conv
Performing DIIS for the z-component of dZdy
 ------------------------------------------------------------------------------
            Enorm      Xdiff       Comment
 ------------------------------------------------------------------------------
     1     7.72e-01   7.18e-01     
     2     4.24e-01   3.93e-01     
     3     2.53e-01   2.28e-01     
     4     4.80e-02   3.06e-01     Switched to DIIS steps.
     5     1.75e-02   3.76e-02     
     6     5.63e-03   6.87e-03     
     7     1.51e-03   2.20e-03     
     8     5.70e-04   2.30e-04     
     9     2.16e-04   5.76e-05     
    10     9.40e-05   4.87e-06     
    11     2.76e-05   6.89e-06     
    12     1.17e-05   1.29e-06     
    13     5.33e-06   1.71e-06     
    14     2.46e-06   2.24e-06     
    15     1.20e-06   1.33e-06     
    16     3.99e-07   7.93e-07     
 ------------------------------------------------------------------------------
                                   Polarizability X-amplitude response conv

Static polarizability with asymmetric derivative approach

 Polarizability Tensor ALPHA_IJ, I,J=X,Y,Z (a.u.):
 ------------------------------------------------------------------------------
        111.75955043   -0.00000000   -0.00000000
         -0.00000000   42.13006017   -0.00000000
         -0.00000000   -0.00000000   71.38448339
 ------------------------------------------------------------------------------
 Isotropic polarizability: 1/3 * (a_xx + a_yy + a_zz)
 Isotropic polarizability in a.u. = 75.09136466
 Anisotropic polarizability: SQRT(0.5*((a_xx-a_yy)^2 + (a_yy-a_zz)^2 + (a_zz-a_xx)^2))
 Anisotropic polarizability in a.u. = 60.55672230
 ------------------------------------------------------------------------------
 EOMEE-CCSD calculation:   CPU 23499.13 s  wall 2654.30 s

 Total ccman2 time:   CPU 25544.71 s  wall 2911.19 s

 
 --------------------------------------------------------------
             Orbital Energies (a.u.) and Symmetries
 --------------------------------------------------------------
 
 Alpha MOs, Restricted
 -- Occupied --                  
-15.577 -15.577 -11.318 -11.311 -11.311 -11.261  -1.314  -1.196
  1 B1    1 A1    2 A1    3 A1    2 B1    4 A1    5 A1    3 B1                 
 -1.078  -0.902  -0.890  -0.742  -0.704  -0.650  -0.600  -0.592
  6 A1    4 B1    7 A1    8 A1    5 B1    9 A1    6 B1   10 A1                 
 -0.577  -0.472  -0.421  -0.420  -0.380
  1 B2   11 A1    1 A2    7 B1    2 B2                                         
 -- Virtual --                   
  0.031   0.042   0.047   0.059   0.074   0.075   0.090   0.098
 12 A1    8 B1   13 A1   14 A1    2 A2    3 B2    9 B1    4 B2                 
  0.099   0.112   0.116   0.117   0.118   0.133   0.138   0.151
 15 A1    5 B2   16 A1   10 B1    3 A2   11 B1   17 A1   18 A1                 
  0.163   0.163   0.165   0.176   0.198   0.224   0.224   0.225
 12 B1   19 A1    6 B2   20 A1   13 B1    4 A2    7 B2   21 A1                 
  0.250   0.250   0.276   0.277   0.290   0.296   0.299   0.303
 22 A1   14 B1    8 B2   15 B1    9 B2   23 A1   24 A1   16 B1                 
  0.310   0.310   0.326   0.328   0.330   0.332   0.336   0.337
 25 A1   17 B1   26 A1    5 A2   10 B2   18 B1   27 A1    6 A2                 
  0.359   0.378   0.386   0.387   0.407   0.408   0.420   0.425
 28 A1   19 B1   11 B2   29 A1    7 A2   12 B2   30 A1   20 B1                 
  0.436   0.441   0.478   0.480   0.487   0.490   0.495   0.509
 13 B2   31 A1   32 A1   21 B1   22 B1   14 B2    8 A2   33 A1                 
  0.530   0.539   0.550   0.561   0.575   0.581   0.589   0.599
 34 A1   23 B1   35 A1   36 A1   24 B1   25 B1   37 A1    9 A2                 
  0.605   0.610   0.613   0.643   0.670   0.687   0.719   0.720
 26 B1   15 B2   38 A1   39 A1   27 B1   40 A1   16 B2   41 A1                 
  0.723   0.742   0.753   0.759   0.762   0.779   0.784   0.825
 28 B1   17 B2   10 A2   42 A1   29 B1   43 A1   18 B2   30 B1                 
  0.833   0.844   0.853   0.858   0.865   0.929   0.963   0.973
 11 A2   31 B1   44 A1   12 A2   19 B2   20 B2   45 A1   32 B1                 
  0.995   1.008   1.037   1.038   1.075   1.085   1.110   1.143
 33 B1   46 A1   21 B2   13 A2   47 A1   34 B1   22 B2   35 B1                 
  1.160   1.161   1.175   1.185   1.257   1.329   1.333   1.348
 48 A1   14 A2   36 B1   49 A1   50 A1   37 B1   51 A1   23 B2                 
  1.375   1.382   1.393   1.408   1.420   1.427   1.451   1.478
 52 A1   24 B2   53 A1   38 B1   15 A2   54 A1   39 B1   55 A1                 
  1.524   1.530   1.565   1.604   1.612   1.633   1.663   1.670
 56 A1   40 B1   25 B2   41 B1   57 A1   26 B2   42 B1   16 A2                 
  1.724   1.764   1.767   1.807   1.811   1.850   1.878   1.988
 27 B2   17 A2   58 A1   59 A1   43 B1   60 A1   44 B1   45 B1                 
  1.996   2.092   2.184   2.204   2.207   2.222   2.247   2.295
 61 A1   62 A1   18 A2   63 A1   46 B1   28 B2   47 B1   64 A1                 
  2.407   2.430   2.537   2.558   2.561   2.594   2.597   2.753
 48 B1   19 A2   29 B2   65 A1   49 B1   66 A1   30 B2   67 A1                 
  2.887   2.980   2.994   3.106   3.141   3.200   3.335   3.346
 20 A2   50 B1   51 B1   68 A1   69 A1   52 B1   53 B1   70 A1                 
  3.936  22.622  22.996  23.036  23.281  34.220  34.229
 71 A1   72 A1   73 A1   54 B1   74 A1   75 A1   55 B1                         
 
 Beta MOs, Restricted
 -- Occupied --                  
-15.577 -15.577 -11.318 -11.311 -11.311 -11.261  -1.314  -1.196
  1 B1    1 A1    2 A1    3 A1    2 B1    4 A1    5 A1    3 B1                 
 -1.078  -0.902  -0.890  -0.742  -0.704  -0.650  -0.600  -0.592
  6 A1    4 B1    7 A1    8 A1    5 B1    9 A1    6 B1   10 A1                 
 -0.577  -0.472  -0.421  -0.420  -0.380
  1 B2   11 A1    1 A2    7 B1    2 B2                                         
 -- Virtual --                   
  0.031   0.042   0.047   0.059   0.074   0.075   0.090   0.098
 12 A1    8 B1   13 A1   14 A1    2 A2    3 B2    9 B1    4 B2                 
  0.099   0.112   0.116   0.117   0.118   0.133   0.138   0.151
 15 A1    5 B2   16 A1   10 B1    3 A2   11 B1   17 A1   18 A1                 
  0.163   0.163   0.165   0.176   0.198   0.224   0.224   0.225
 12 B1   19 A1    6 B2   20 A1   13 B1    4 A2    7 B2   21 A1                 
  0.250   0.250   0.276   0.277   0.290   0.296   0.299   0.303
 22 A1   14 B1    8 B2   15 B1    9 B2   23 A1   24 A1   16 B1                 
  0.310   0.310   0.326   0.328   0.330   0.332   0.336   0.337
 25 A1   17 B1   26 A1    5 A2   10 B2   18 B1   27 A1    6 A2                 
  0.359   0.378   0.386   0.387   0.407   0.408   0.420   0.425
 28 A1   19 B1   11 B2   29 A1    7 A2   12 B2   30 A1   20 B1                 
  0.436   0.441   0.478   0.480   0.487   0.490   0.495   0.509
 13 B2   31 A1   32 A1   21 B1   22 B1   14 B2    8 A2   33 A1                 
  0.530   0.539   0.550   0.561   0.575   0.581   0.589   0.599
 34 A1   23 B1   35 A1   36 A1   24 B1   25 B1   37 A1    9 A2                 
  0.605   0.610   0.613   0.643   0.670   0.687   0.719   0.720
 26 B1   15 B2   38 A1   39 A1   27 B1   40 A1   16 B2   41 A1                 
  0.723   0.742   0.753   0.759   0.762   0.779   0.784   0.825
 28 B1   17 B2   10 A2   42 A1   29 B1   43 A1   18 B2   30 B1                 
  0.833   0.844   0.853   0.858   0.865   0.929   0.963   0.973
 11 A2   31 B1   44 A1   12 A2   19 B2   20 B2   45 A1   32 B1                 
  0.995   1.008   1.037   1.038   1.075   1.085   1.110   1.143
 33 B1   46 A1   21 B2   13 A2   47 A1   34 B1   22 B2   35 B1                 
  1.160   1.161   1.175   1.185   1.257   1.329   1.333   1.348
 48 A1   14 A2   36 B1   49 A1   50 A1   37 B1   51 A1   23 B2                 
  1.375   1.382   1.393   1.408   1.420   1.427   1.451   1.478
 52 A1   24 B2   53 A1   38 B1   15 A2   54 A1   39 B1   55 A1                 
  1.524   1.530   1.565   1.604   1.612   1.633   1.663   1.670
 56 A1   40 B1   25 B2   41 B1   57 A1   26 B2   42 B1   16 A2                 
  1.724   1.764   1.767   1.807   1.811   1.850   1.878   1.988
 27 B2   17 A2   58 A1   59 A1   43 B1   60 A1   44 B1   45 B1                 
  1.996   2.092   2.184   2.204   2.207   2.222   2.247   2.295
 61 A1   62 A1   18 A2   63 A1   46 B1   28 B2   47 B1   64 A1                 
  2.407   2.430   2.537   2.558   2.561   2.594   2.597   2.753
 48 B1   19 A2   29 B2   65 A1   49 B1   66 A1   30 B2   67 A1                 
  2.887   2.980   2.994   3.106   3.141   3.200   3.335   3.346
 20 A2   50 B1   51 B1   68 A1   69 A1   52 B1   53 B1   70 A1                 
  3.936  22.622  22.996  23.036  23.281  34.220  34.229
 71 A1   72 A1   73 A1   54 B1   74 A1   75 A1   55 B1                         
 --------------------------------------------------------------
 
          Ground-State Mulliken Net Atomic Charges

     Atom                 Charge (a.u.)
  ----------------------------------------
      1 C                     1.125636
      2 N                    -0.782706
      3 C                     0.712146
      4 N                    -0.782706
      5 C                     1.125636
      6 C                     1.344699
      7 H                    -0.521074
      8 H                    -1.194072
      9 H                    -0.521074
     10 H                    -0.506484
  ----------------------------------------
  Sum of atomic charges =     0.000000

 -----------------------------------------------------------------
                    Cartesian Multipole Moments
 -----------------------------------------------------------------
    Charge (ESU x 10^10)
                 0.0000
    Dipole Moment (Debye)
         X       0.0000      Y      -0.0000      Z       2.4645
       Tot       2.4645
    Quadrupole Moments (Debye-Ang)
        XX     -37.9245     XY       0.0000     YY     -36.6653
        XZ       0.0000     YZ       0.0000     ZZ     -31.6461
    Octopole Moments (Debye-Ang^2)
       XXX       0.0000    XXY       0.0000    XYY      -0.0000
       YYY      -0.0000    XXZ      15.0098    XYZ      -0.0000
       YYZ      -1.2722    XZZ       0.0000    YZZ      -0.0000
       ZZZ      -0.1264
    Hexadecapole Moments (Debye-Ang^3)
      XXXX    -268.8140   XXXY       0.0000   XXYY     -53.8100
      XYYY       0.0000   YYYY     -41.3322   XXXZ      -0.0000
      XXYZ       0.0000   XYYZ       0.0000   YYYZ       0.0000
      XXZZ     -94.9809   XYZZ      -0.0000   YYZZ     -55.1968
      XZZZ       0.0000   YZZZ       0.0000   ZZZZ    -237.5952
 -----------------------------------------------------------------
Archival summary:
1\1\Knecht17\SP\ProcedureUnspecified\BasisUnspecified\244\mscheure\TueMar3112:45:572020TueMar3112:45:572020\0\\#,ProcedureUnspecified,BasisUnspecified,\\0,1\N\C,1,1.328\H,2,1.082,1,115.848\N,2,1.328,1,128.304,3,180,0\C,4,1.35,2,115.748,1,0,0\H,5,1.079,4,117.9,2,180,0\C,1,1.35,2,115.748,3,-180,0\H,7,1.079,1,117.9,2,-180,0\C,5,1.393,4,121.2,2,-0,0\H,9,1.087,5,121.1,4,180,0\\HF=-262.749435\\@

 Total job time:  2986.12s(wall), 25877.85s(cpu) 
 Tue Mar 31 12:45:57 2020

        *************************************************************
        *                                                           *
        *  Thank you very much for using Q-Chem.  Have a nice day.  *
        *                                                           *
        *************************************************************


