                  Welcome to Q-Chem
     A Quantum Leap Into The Future Of Chemistry


 Q-Chem 5.3 (devel), Q-Chem, Inc., Pleasanton, CA (2020)

 Yihan Shao,  Zhengting Gan,  E. Epifanovsky,  A. T. B. Gilbert,  M. Wormit,  
 J. Kussmann,  A. W. Lange,  A. Behn,  Jia Deng,  Xintian Feng,  D. Ghosh,  
 M. Goldey,  P. R. Horn,  L. D. Jacobson,  I. Kaliman,  T. Kus,  A. Landau,  
 Jie Liu,  E. I. Proynov,  R. M. Richard,  R. P. Steele,  E. J. Sundstrom,  
 H. L. Woodcock III,  P. M. Zimmerman,  D. Zuev,  B. Alam,  B. Albrecht,  
 E. Alguire,  S. A. Baeppler,  D. Barton,  Z. Benda,  Y. A. Bernard,  
 E. J. Berquist,  K. B. Bravaya,  H. Burton,  K. Carter-Fenk,  D. Casanova,  
 Chun-Min Chang,  Yunqing Chen,  A. Chien,  K. D. Closser,  M. P. Coons,  
 S. Coriani,  S. Dasgupta,  A. L. Dempwolff,  M. Diedenhofen,  Hainam Do,  
 R. G. Edgar,  Po-Tung Fang,  S. Faraji,  S. Fatehi,  Qingguo Feng,  
 J. Fosso-Tande,  J. Gayvert,  Qinghui Ge,  A. Ghysels,  G. Gidofalvi,  
 J. Gomes,  J. Gonthier,  A. Gunina,  D. Hait,  M. W. D. Hanson-Heine,  
 P. H. P. Harbach,  A. W. Hauser,  M. F. Herbst,  J. E. Herr,  
 E. G. Hohenstein,  Z. C. Holden,  Kerwin Hui,  B. C. Huynh,  T.-C. Jagau,  
 Hyunjun Ji,  B. Kaduk,  K. Khistyaev,  Jaehoon Kim,  P. Klunzinger,  K. Koh,  
 D. Kosenkov,  L. Koulias,  T. Kowalczyk,  C. M. Krauter,  A. Kunitsa,  
 Ka Un Lao,  A. Laurent,  K. V. Lawler,  Joonho Lee,  D. Lefrancois,  
 S. Lehtola,  D. S. Levine,  Yi-Pei Li,  You-Sheng Lin,  Fenglai Liu,  
 Kuan-Yu Liu,  E. Livshits,  M. Loipersberger,  A. Luenser,  P. Manohar,  
 E. Mansoor,  S. F. Manzer,  Shan-Ping Mao,  Yuezhi Mao,  N. Mardirossian,  
 A. V. Marenich,  T. Markovich,  L. A. Martinez-Martinez,  S. A. Maurer,  
 N. J. Mayhall,  S. C. McKenzie,  J.-M. Mewes,  P. Morgante,  A. F. Morrison,  
 J. W. Mullinax,  K. Nanda,  T. S. Nguyen-Beck,  R. Olivares-Amaya,  
 J. A. Parkhill,  S. K. Paul,  F. Pavosevic,  Zheng Pei,  T. M. Perrine,  
 F. Plasser,  P. Pokhilko,  S. Prager,  A. Prociuk,  E. Ramos,  B. Rana,  
 D. R. Rehn,  F. Rob,  M. Scheurer,  M. Schneider,  N. Sergueev,  
 S. M. Sharada,  S. Sharma,  D. W. Small,  T. Stauch,  C. J. Stein,  
 T. Stein,  Yu-Chuan Su,  S. P. Veccham,  Zhen Tao,  A. J. W. Thom,  
 A. Tkatchenko,  T. Tsuchimochi,  N. M. Tubman,  L. Vogt,  M. L. Vidal,  
 O. Vydrov,  M. A. Watson,  J. Wenzel,  M. de Wergifosse,  T. A. Wesolowski,  
 A. White,  J. Witte,  A. Yamada,  Jun Yang,  K. Yao,  S. Yeganeh,  
 S. R. Yost,  Zhi-Qiang You,  A. Zech,  Igor Ying Zhang,  Xing Zhang,  
 Yan Zhao,  Ying Zhu,  B. R. Brooks,  G. K. L. Chan,  C. J. Cramer,  
 M. S. Gordon,  W. J. Hehre,  A. Klamt,  M. W. Schmidt,  C. D. Sherrill,  
 D. G. Truhlar,  A. Aspuru-Guzik,  R. Baer,  A. T. Bell,  N. A. Besley,  
 Jeng-Da Chai,  A. E. DePrince, III,  R. A. DiStasio Jr.,  A. Dreuw,  
 B. D. Dunietz,  T. R. Furlani,  Chao-Ping Hsu,  Yousung Jung,  Jing Kong,  
 D. S. Lambrecht,  WanZhen Liang,  C. Ochsenfeld,  V. A. Rassolov,  
 L. V. Slipchenko,  J. E. Subotnik,  T. Van Voorhis,  J. M. Herbert,  
 A. I. Krylov,  P. M. W. Gill,  M. Head-Gordon

 Contributors to earlier versions of Q-Chem not listed above: 
 R. D. Adamson,  B. Austin,  J. Baker,  G. J. O. Beran,  K. Brandhorst,  
 S. T. Brown,  E. F. C. Byrd,  A. K. Chakraborty,  C.-L. Cheng,  
 Siu Hung Chien,  D. M. Chipman,  D. L. Crittenden,  H. Dachsel,  
 R. J. Doerksen,  A. D. Dutoi,  L. Fusti-Molnar,  W. A. Goddard III,  
 A. Golubeva-Zadorozhnaya,  S. R. Gwaltney,  G. Hawkins,  A. Heyden,  
 S. Hirata,  G. Kedziora,  F. J. Keil,  C. Kelley,  Jihan Kim,  R. A. King,  
 R. Z. Khaliullin,  P. P. Korambath,  W. Kurlancheek,  A. M. Lee,  M. S. Lee,  
 S. V. Levchenko,  Ching Yeh Lin,  D. Liotard,  R. C. Lochan,  I. Lotan,  
 P. E. Maslen,  N. Nair,  D. P. O'Neill,  D. Neuhauser,  E. Neuscamman,  
 C. M. Oana,  R. Olson,  B. Peters,  R. Peverati,  P. A. Pieniazek,  
 Y. M. Rhee,  J. Ritchie,  M. A. Rohrdanz,  E. Rosta,  N. J. Russ,  
 H. F. Schaefer III,  N. E. Schultz,  N. Shenvi,  A. C. Simmonett,  A. Sodt,  
 D. Stuck,  K. S. Thanthiriwatte,  V. Vanovschi,  Tao Wang,  A. Warshel,  
 C. F. Williams,  Q. Wu,  X. Xu,  W. Zhang

 Please cite Q-Chem as follows:
 Y. Shao et al., Mol. Phys. 113, 184-215 (2015)
 DOI: 10.1080/00268976.2014.952696

 Q-Chem 5.3.0 for Intel X86 EM64T Linux

 Parts of Q-Chem use Armadillo 9.800.1 (Horizon Scraper).
 http://arma.sourceforge.net/

 Q-Chem begins on Sun Apr 19 18:14:16 2020  

Host: 
0

     Scratch files written to /lscratch/mscheure/naphthalene_adc2x_347642.Meister/qchem1087//
Processing $rem in /export/home/mscheure/data/qchem_ccman2_pe/qchem/config/preferences:
Processing $rem in /export/home/mscheure/.qchemrc:

Checking the input file for inconsistencies... 	...done.

--------------------------------------------------------------
User input:
--------------------------------------------------------------
$molecule
 0 1
C	2.4263501231	-0.7056037689	0.0000000000
C	2.4263501231	0.7056037689	0.0000000000
C	1.2376214393	1.4004977720	0.0000000000
C	0.0000000000	0.7148848658	0.0000000000
C	0.0000000000	-0.7148848658	0.0000000000
C	1.2376214393	-1.4004977720	0.0000000000
C	-1.2376214393	-1.4004977720	0.0000000000
C	-2.4263501231	-0.7056037689	0.0000000000
C	-2.4263501231	0.7056037689	0.0000000000
C	-1.2376214393	1.4004977720	0.0000000000
H	3.3655793057	-1.2419330757	0.0000000000
H	3.3655793057	1.2419330757	0.0000000000
H	1.2353527952	2.4836421100	0.0000000000
H	1.2353527952	-2.4836421100	0.0000000000
H	-1.2353527952	-2.4836421100	0.0000000000
H	-3.3655793057	-1.2419330757	0.0000000000
H	-3.3655793057	1.2419330757	0.0000000000
H	-1.2353527952	2.4836421100	0.0000000000
$end

$rem
   METHOD            adc(2)-x
   BASIS aug-cc-pvdz
   ee_singlets 	     5
   mem_total 650000
   mem_static 2000
   threads 24
   adc_davidson_maxiter 140
   thresh 14
   symmetry false
   sym_ignore true
$end
--------------------------------------------------------------
 ----------------------------------------------------------------
             Standard Nuclear Orientation (Angstroms)
    I     Atom           X                Y                Z
 ----------------------------------------------------------------
    1      C       2.4263501231    -0.7056037689     0.0000000000
    2      C       2.4263501231     0.7056037689     0.0000000000
    3      C       1.2376214393     1.4004977720     0.0000000000
    4      C       0.0000000000     0.7148848658     0.0000000000
    5      C       0.0000000000    -0.7148848658     0.0000000000
    6      C       1.2376214393    -1.4004977720     0.0000000000
    7      C      -1.2376214393    -1.4004977720     0.0000000000
    8      C      -2.4263501231    -0.7056037689     0.0000000000
    9      C      -2.4263501231     0.7056037689     0.0000000000
   10      C      -1.2376214393     1.4004977720     0.0000000000
   11      H       3.3655793057    -1.2419330757     0.0000000000
   12      H       3.3655793057     1.2419330757     0.0000000000
   13      H       1.2353527952     2.4836421100     0.0000000000
   14      H       1.2353527952    -2.4836421100     0.0000000000
   15      H      -1.2353527952    -2.4836421100     0.0000000000
   16      H      -3.3655793057    -1.2419330757     0.0000000000
   17      H      -3.3655793057     1.2419330757     0.0000000000
   18      H      -1.2353527952     2.4836421100     0.0000000000
 ----------------------------------------------------------------
 Nuclear Repulsion Energy =         458.55411536 hartrees
 There are       34 alpha and       34 beta electrons
 Requested basis set is aug-cc-pVDZ
 There are 130 shells and 302 basis functions
 Total memory of 650000 MB is distributed as follows: 
   MEM_STATIC is set to 2000 MB
   QALLOC/CCMAN JOB total memory use is  648000 MB
 Warning: actual memory use might exceed 650000 MB

 Total QAlloc Memory Limit 650000 MB
 Mega-Array Size      1956 MB
 MEM_STATIC part      2000 MB
 A cutoff of  1.0D-14 yielded   8427 shell pairs
 There are     45651 function pairs (     51973 Cartesian)
 Smallest overlap matrix eigenvalue = 8.20E-07
 Linear dependence detected in AO basis
 Tighter screening thresholds may be required for diffuse basis sets
 Use S2THRESH > 14 and THRESH = 14 in case of SCF convergence issues
 Number of orthogonalized atomic orbitals = 301
 Maximum deviation from orthogonality = 1.719E-10

 Scale SEOQF with 1.000000e-01/1.000000e-01/1.000000e-01

 Standard Electronic Orientation quadrupole field applied
 Nucleus-field energy     =     0.0000000151 hartrees
 Guess from superposition of atomic densities
 Warning:  Energy on first SCF cycle will be non-variational
 SAD guess density has 68.000000 electrons
 A restricted Hartree-Fock SCF calculation will be
 performed using Pulay DIIS extrapolation
 SCF converges when DIIS error is below 1.0E-08
 using 24 threads for integral computing
 -------------------------------------------------------
 OpenMP Integral computing Module                
 Release: version 2.0, May 2017, Q-Chem Inc. Pleasanton 
 -------------------------------------------------------
 ---------------------------------------
  Cycle       Energy         DIIS Error
 ---------------------------------------
    1    -388.0208911350      3.89E-02
    2    -383.2849239982      2.45E-03
    3    -383.3853386428      6.47E-04
    4    -383.3929932520      2.21E-04
    5    -383.3936578904      3.55E-05
    6    -383.3936925915      1.56E-05
    7    -383.3937001051      5.79E-06
    8    -383.3937019961      2.68E-06
    9    -383.3937023048      8.60E-07
   10    -383.3937023344      1.73E-07
   11    -383.3937023357      2.84E-08
   12    -383.3937023357      4.62E-09 Convergence criterion met
 ---------------------------------------
 SCF time:  CPU 665.63 s  wall 27.75 s
 SCF   energy in the final basis set = -383.39370234
 Total energy in the final basis set = -383.39370234
================================================================================
|                                                                              |
|                                 A D C  M A N                                 |
|                                                                              |
 ------------------------------------------------------------------------------ 
|                                                                              |
| Components:                                                                  |
|                                                                              |
| - libvmm - 1.3-trunk                                                         |
|   Authors:                                                                   |
|   Evgeny Epifanovsky, Ilya Kaliman                                           |
|                                                                              |
| - libtensor - 2.5-trunk                                                      |
|   Authors:                                                                   |
|   Evgeny Epifanovsky, Michael Wormit, Dmitry Zuev, Sam Manzer,               |
|   Ilya Kaliman                                                               |
|                                                                              |
| - libwfa - 1.1-trunk                                                         |
|   Authors:                                                                   |
|   Felix Plasser, Stefanie Mewes (Baeppler), Benjamin Thomitzni,              |
|   Michael Wormit, Feng Chen, Anna I. Krylov, Pavel Pokhilko                  |
|                                                                              |
| - libadc - 1.1-trunk                                                         |
|   Authors:                                                                   |
|   Michael Wormit, Adrian L. Dempwolff, Philipp H. P. Harbach,                |
|   Caroline Krauter, Dirk Rehn, Matthias Schneider, Jan Wenzel                |
|                                                                              |
| - adcman - 2.6-trunk                                                         |
|   Authors:                                                                   |
|   Michael Wormit, Adrian L. Dempwolff, Philipp H. P. Harbach,                |
|   Caroline Krauter, Daniel Lefrancois, Jan-Michael Mewes, Dirk Rehn,         |
|   Matthias Schneider, Jan Wenzel, Andreas Dreuw                              |
|                                                                              |
| Authors of earlier versions of ADCMAN:                                       |
| Andreas Dreuw, Jan Hendrik Starcke, Dirk Rehn, Michael Wormit                |
|                                                                              |
================================================================================

 
 Alpha MOs, Restricted
 -- Occupied --                  
-11.249 -11.248 -11.244 -11.244 -11.244 -11.243 -11.243 -11.243
  1 A     2 A     3 A     4 A     5 A     6 A     7 A     8 A                  
-11.242 -11.242  -1.181  -1.113  -1.055  -1.013  -0.984  -0.858
  9 A    10 A    11 A    12 A    13 A    14 A    15 A    16 A                  
 -0.839  -0.815  -0.710  -0.702  -0.680  -0.626  -0.614  -0.586
 17 A    18 A    19 A    20 A    21 A    22 A    23 A    24 A                  
 -0.585  -0.565  -0.534  -0.527  -0.490  -0.479  -0.449  -0.387
 25 A    26 A    27 A    28 A    29 A    30 A    31 A    32 A                  
 -0.320  -0.288
 33 A    34 A                                                                  
 -- Virtual --                   
  0.035   0.037   0.039   0.051   0.053   0.067   0.074   0.075
 35 A    36 A    37 A    38 A    39 A    40 A    41 A    42 A                  
  0.093   0.099   0.099   0.110   0.118   0.124   0.132   0.133
 43 A    44 A    45 A    46 A    47 A    48 A    49 A    50 A                  
  0.138   0.145   0.149   0.150   0.153   0.154   0.158   0.165
 51 A    52 A    53 A    54 A    55 A    56 A    57 A    58 A                  
  0.166   0.168   0.188   0.194   0.195   0.195   0.201   0.207
 59 A    60 A    61 A    62 A    63 A    64 A    65 A    66 A                  
  0.211   0.213   0.215   0.222   0.246   0.249   0.261   0.274
 67 A    68 A    69 A    70 A    71 A    72 A    73 A    74 A                  
  0.281   0.287   0.297   0.303   0.309   0.311   0.324   0.343
 75 A    76 A    77 A    78 A    79 A    80 A    81 A    82 A                  
  0.345   0.346   0.346   0.355   0.356   0.367   0.367   0.377
 83 A    84 A    85 A    86 A    87 A    88 A    89 A    90 A                  
  0.384   0.390   0.396   0.400   0.403   0.410   0.412   0.441
 91 A    92 A    93 A    94 A    95 A    96 A    97 A    98 A                  
  0.443   0.450   0.457   0.462   0.467   0.469   0.479   0.503
 99 A   100 A   101 A   102 A   103 A   104 A   105 A   106 A                  
  0.507   0.518   0.520   0.536   0.551   0.556   0.557   0.566
107 A   108 A   109 A   110 A   111 A   112 A   113 A   114 A                  
  0.567   0.584   0.594   0.609   0.637   0.646   0.647   0.647
115 A   116 A   117 A   118 A   119 A   120 A   121 A   122 A                  
  0.649   0.649   0.654   0.671   0.679   0.681   0.684   0.688
123 A   124 A   125 A   126 A   127 A   128 A   129 A   130 A                  
  0.693   0.698   0.707   0.714   0.716   0.728   0.729   0.735
131 A   132 A   133 A   134 A   135 A   136 A   137 A   138 A                  
  0.738   0.742   0.757   0.765   0.776   0.776   0.782   0.784
139 A   140 A   141 A   142 A   143 A   144 A   145 A   146 A                  
  0.792   0.818   0.856   0.859   0.869   0.871   0.889   0.894
147 A   148 A   149 A   150 A   151 A   152 A   153 A   154 A                  
  0.909   0.917   0.922   0.926   0.932   0.936   0.945   0.948
155 A   156 A   157 A   158 A   159 A   160 A   161 A   162 A                  
  0.953   0.962   0.972   0.976   1.010   1.012   1.012   1.013
163 A   164 A   165 A   166 A   167 A   168 A   169 A   170 A                  
  1.022   1.060   1.064   1.066   1.079   1.086   1.107   1.116
171 A   172 A   173 A   174 A   175 A   176 A   177 A   178 A                  
  1.142   1.169   1.187   1.203   1.233   1.243   1.260   1.279
179 A   180 A   181 A   182 A   183 A   184 A   185 A   186 A                  
  1.293   1.295   1.342   1.351   1.434   1.467   1.475   1.494
187 A   188 A   189 A   190 A   191 A   192 A   193 A   194 A                  
  1.506   1.518   1.531   1.535   1.536   1.551   1.564   1.590
195 A   196 A   197 A   198 A   199 A   200 A   201 A   202 A                  
  1.605   1.610   1.620   1.622   1.636   1.638   1.639   1.653
203 A   204 A   205 A   206 A   207 A   208 A   209 A   210 A                  
  1.666   1.669   1.699   1.748   1.749   1.761   1.762   1.791
211 A   212 A   213 A   214 A   215 A   216 A   217 A   218 A                  
  1.794   1.794   1.796   1.799   1.835   1.848   1.854   1.893
219 A   220 A   221 A   222 A   223 A   224 A   225 A   226 A                  
  1.909   1.911   1.947   1.953   1.958   1.972   1.973   1.977
227 A   228 A   229 A   230 A   231 A   232 A   233 A   234 A                  
  1.983   2.015   2.055   2.061   2.083   2.084   2.087   2.087
235 A   236 A   237 A   238 A   239 A   240 A   241 A   242 A                  
  2.098   2.110   2.117   2.125   2.147   2.149   2.189   2.192
243 A   244 A   245 A   246 A   247 A   248 A   249 A   250 A                  
  2.232   2.264   2.266   2.267   2.285   2.290   2.301   2.308
251 A   252 A   253 A   254 A   255 A   256 A   257 A   258 A                  
  2.335   2.338   2.360   2.371   2.379   2.395   2.411   2.417
259 A   260 A   261 A   262 A   263 A   264 A   265 A   266 A                  
  2.440   2.440   2.503   2.528   2.533   2.572   2.605   2.698
267 A   268 A   269 A   270 A   271 A   272 A   273 A   274 A                  
  2.718   2.723   2.754   2.808   2.838   2.840   2.853   2.951
275 A   276 A   277 A   278 A   279 A   280 A   281 A   282 A                  
  2.953   2.966   3.043   3.049   3.068   3.116   3.200   3.216
283 A   284 A   285 A   286 A   287 A   288 A   289 A   290 A                  
  3.249   3.369   3.377   3.403   3.529   3.669   3.680   3.867
291 A   292 A   293 A   294 A   295 A   296 A   297 A   298 A                  
  3.881   4.539   4.762
299 A   300 A   301 A                                                          
 
 Beta MOs, Restricted
 -- Occupied --                  
-11.249 -11.248 -11.244 -11.244 -11.244 -11.243 -11.243 -11.243
  1 A     2 A     3 A     4 A     5 A     6 A     7 A     8 A                  
-11.242 -11.242  -1.181  -1.113  -1.055  -1.013  -0.984  -0.858
  9 A    10 A    11 A    12 A    13 A    14 A    15 A    16 A                  
 -0.839  -0.815  -0.710  -0.702  -0.680  -0.626  -0.614  -0.586
 17 A    18 A    19 A    20 A    21 A    22 A    23 A    24 A                  
 -0.585  -0.565  -0.534  -0.527  -0.490  -0.479  -0.449  -0.387
 25 A    26 A    27 A    28 A    29 A    30 A    31 A    32 A                  
 -0.320  -0.288
 33 A    34 A                                                                  
 -- Virtual --                   
  0.035   0.037   0.039   0.051   0.053   0.067   0.074   0.075
 35 A    36 A    37 A    38 A    39 A    40 A    41 A    42 A                  
  0.093   0.099   0.099   0.110   0.118   0.124   0.132   0.133
 43 A    44 A    45 A    46 A    47 A    48 A    49 A    50 A                  
  0.138   0.145   0.149   0.150   0.153   0.154   0.158   0.165
 51 A    52 A    53 A    54 A    55 A    56 A    57 A    58 A                  
  0.166   0.168   0.188   0.194   0.195   0.195   0.201   0.207
 59 A    60 A    61 A    62 A    63 A    64 A    65 A    66 A                  
  0.211   0.213   0.215   0.222   0.246   0.249   0.261   0.274
 67 A    68 A    69 A    70 A    71 A    72 A    73 A    74 A                  
  0.281   0.287   0.297   0.303   0.309   0.311   0.324   0.343
 75 A    76 A    77 A    78 A    79 A    80 A    81 A    82 A                  
  0.345   0.346   0.346   0.355   0.356   0.367   0.367   0.377
 83 A    84 A    85 A    86 A    87 A    88 A    89 A    90 A                  
  0.384   0.390   0.396   0.400   0.403   0.410   0.412   0.441
 91 A    92 A    93 A    94 A    95 A    96 A    97 A    98 A                  
  0.443   0.450   0.457   0.462   0.467   0.469   0.479   0.503
 99 A   100 A   101 A   102 A   103 A   104 A   105 A   106 A                  
  0.507   0.518   0.520   0.536   0.551   0.556   0.557   0.566
107 A   108 A   109 A   110 A   111 A   112 A   113 A   114 A                  
  0.567   0.584   0.594   0.609   0.637   0.646   0.647   0.647
115 A   116 A   117 A   118 A   119 A   120 A   121 A   122 A                  
  0.649   0.649   0.654   0.671   0.679   0.681   0.684   0.688
123 A   124 A   125 A   126 A   127 A   128 A   129 A   130 A                  
  0.693   0.698   0.707   0.714   0.716   0.728   0.729   0.735
131 A   132 A   133 A   134 A   135 A   136 A   137 A   138 A                  
  0.738   0.742   0.757   0.765   0.776   0.776   0.782   0.784
139 A   140 A   141 A   142 A   143 A   144 A   145 A   146 A                  
  0.792   0.818   0.856   0.859   0.869   0.871   0.889   0.894
147 A   148 A   149 A   150 A   151 A   152 A   153 A   154 A                  
  0.909   0.917   0.922   0.926   0.932   0.936   0.945   0.948
155 A   156 A   157 A   158 A   159 A   160 A   161 A   162 A                  
  0.953   0.962   0.972   0.976   1.010   1.012   1.012   1.013
163 A   164 A   165 A   166 A   167 A   168 A   169 A   170 A                  
  1.022   1.060   1.064   1.066   1.079   1.086   1.107   1.116
171 A   172 A   173 A   174 A   175 A   176 A   177 A   178 A                  
  1.142   1.169   1.187   1.203   1.233   1.243   1.260   1.279
179 A   180 A   181 A   182 A   183 A   184 A   185 A   186 A                  
  1.293   1.295   1.342   1.351   1.434   1.467   1.475   1.494
187 A   188 A   189 A   190 A   191 A   192 A   193 A   194 A                  
  1.506   1.518   1.531   1.535   1.536   1.551   1.564   1.590
195 A   196 A   197 A   198 A   199 A   200 A   201 A   202 A                  
  1.605   1.610   1.620   1.622   1.636   1.638   1.639   1.653
203 A   204 A   205 A   206 A   207 A   208 A   209 A   210 A                  
  1.666   1.669   1.699   1.748   1.749   1.761   1.762   1.791
211 A   212 A   213 A   214 A   215 A   216 A   217 A   218 A                  
  1.794   1.794   1.796   1.799   1.835   1.848   1.854   1.893
219 A   220 A   221 A   222 A   223 A   224 A   225 A   226 A                  
  1.909   1.911   1.947   1.953   1.958   1.972   1.973   1.977
227 A   228 A   229 A   230 A   231 A   232 A   233 A   234 A                  
  1.983   2.015   2.055   2.061   2.083   2.084   2.087   2.087
235 A   236 A   237 A   238 A   239 A   240 A   241 A   242 A                  
  2.098   2.110   2.117   2.125   2.147   2.149   2.189   2.192
243 A   244 A   245 A   246 A   247 A   248 A   249 A   250 A                  
  2.232   2.264   2.266   2.267   2.285   2.290   2.301   2.308
251 A   252 A   253 A   254 A   255 A   256 A   257 A   258 A                  
  2.335   2.338   2.360   2.371   2.379   2.395   2.411   2.417
259 A   260 A   261 A   262 A   263 A   264 A   265 A   266 A                  
  2.440   2.440   2.503   2.528   2.533   2.572   2.605   2.698
267 A   268 A   269 A   270 A   271 A   272 A   273 A   274 A                  
  2.718   2.723   2.754   2.808   2.838   2.840   2.853   2.951
275 A   276 A   277 A   278 A   279 A   280 A   281 A   282 A                  
  2.953   2.966   3.043   3.049   3.068   3.116   3.200   3.216
283 A   284 A   285 A   286 A   287 A   288 A   289 A   290 A                  
  3.249   3.369   3.377   3.403   3.529   3.669   3.680   3.867
291 A   292 A   293 A   294 A   295 A   296 A   297 A   298 A                  
  3.881   4.539   4.762
299 A   300 A   301 A                                                          

--------------------------------------------------------------------------------
                                   HF Summary                                   
--------------------------------------------------------------------------------
  Energy:                                                 -383.3937023357 a.u.
  Dip. moment [a.u.]:                  [   0.000000,   -0.000000,    0.000000]
  Total dipole [Debye]:                                               0.000000
  <r^2> [a.u.]:                        [ 857.945635,  381.406588,   49.232573]
  Total <r^2> [a.u.]:                                              1288.584795
--------------------------------------------------------------------------------

--------------------------------------------------------------------------------
                                 MP(2) Summary                                  
--------------------------------------------------------------------------------
  MP energy contribution:                                   -1.3720832177 a.u.
  Total energy:                                           -384.7657855534 a.u.
  Dip. moment [a.u.]:                  [  -0.000000,   -0.000000,   -0.000000]
  Total dipole [Debye]:                                               0.000000
  <r^2> [a.u.]:                        [ 858.418495,  382.007582,   48.868081]
  Total <r^2> [a.u.]:                                              1289.294158
--------------------------------------------------------------------------------
  Starting Davidson for singlet states of irrep A ... 
--------------------------------------------------------------------------------
   It NVec Conv  Avg. Norm  Max. Norm  Conv. states           Remark
--------------------------------------------------------------------------------
         5    0  1.844e-01  5.427e-01  0.3128 n n n n n       Guess.
    1   10    0  7.783e-02  2.842e-01  0.2036 n n n n n       
    2   15    0  2.699e-02  9.148e-02  0.1636 n n n n n       
    3   20    0  1.777e-02  5.013e-02  0.1564 n n n n n       
    4   25    0  1.037e-02  2.900e-02  0.1539 n n n n n       
    5   10    0  5.005e-03  1.507e-02  0.1533 n n n n n       Subspace collapsed.
    6   15    0  3.926e-03  1.350e-02  0.1530 n n n n n       
    7   20    0  2.498e-03  7.367e-03  0.1528 n n n n n       
    8   25    0  1.709e-03  6.242e-03  0.1528 n n n n n       
    9   10    0  1.157e-03  4.602e-03  0.1528 n n n n n       Subspace collapsed.
   10   15    0  1.361e-03  6.068e-03  0.1527 n n n n n       
   11   20    0  1.080e-03  5.024e-03  0.1527 n n n n n       
   12   25    0  1.002e-03  4.835e-03  0.1527 n n n n n       
   13   10    0  7.213e-04  3.508e-03  0.1527 n n n n n       Subspace collapsed.
   14   15    0  6.868e-04  3.381e-03  0.1527 n n n n n       
   15   20    0  4.283e-04  2.111e-03  0.1527 n n n n n       
   16   25    0  4.116e-04  2.028e-03  0.1527 n n n n n       
   17   10    0  3.294e-04  1.636e-03  0.1527 n n n n n       Subspace collapsed.
   18   15    0  4.406e-04  2.197e-03  0.1527 n n n n n       
   19   20    0  3.152e-04  1.572e-03  0.1527 n n n n n       
   20   25    0  3.269e-04  1.631e-03  0.1527 n n n n n       
   21   10    0  2.297e-04  1.147e-03  0.1527 n n n n n       Subspace collapsed.
   22   15    0  2.251e-04  1.125e-03  0.1527 n n n n n       
   23   20    1  1.430e-04  7.146e-04  0.1527 n y n n n       
   24   25    1  1.441e-04  7.199e-04  0.1527 n y n n n       
   25   10    1  1.071e-04  5.351e-04  0.1527 n y n n n       Subspace collapsed.
   26   15    1  1.428e-04  7.140e-04  0.1527 n y n n n       
   27   20    1  1.066e-04  5.330e-04  0.1527 n y n n n       
   28   25    1  1.212e-04  6.061e-04  0.1527 n y n n n       
   29   10    1  7.028e-05  3.514e-04  0.1527 n y n n n       Subspace collapsed.
   30   15    1  7.056e-05  3.528e-04  0.1527 n y n n n       
   31   20    2  4.750e-05  2.375e-04  0.1527 y y n n n       
   32   25    2  4.932e-05  2.465e-04  0.1527 y y n n n       
   33   10    3  3.425e-05  1.712e-04  0.1527 y y n y n       Subspace collapsed.
   34   15    3  4.293e-05  2.146e-04  0.1527 y y n y n       
   35   20    3  3.574e-05  1.787e-04  0.1527 y y n y n       
   36   25    3  4.459e-05  2.229e-04  0.1527 y y n y n       
   37   10    4  2.304e-05  1.152e-04  0.1527 y y y y n       Subspace collapsed.
   38   15    4  2.388e-05  1.194e-04  0.1527 y y y y n       
   39   20    4  1.763e-05  8.817e-05  0.1527 y y y y n       
   40   25    4  1.589e-05  7.943e-05  0.1527 y y y y n       
   41   10    4  1.284e-05  6.420e-05  0.1527 y y y y n       Subspace collapsed.
   42   15    4  1.820e-05  9.100e-05  0.1527 y y y y n       
   43   20    4  2.491e-05  1.245e-04  0.1527 y y y y n       
   44   25    4  3.491e-02  1.746e-01  0.1527 y y y y n       
   45   10    4  2.406e-02  1.203e-01  0.1527 y n y y y       Subspace collapsed.
   46   15    4  3.069e-02  1.535e-01  0.1495 n y y y y       
   47   20    4  1.112e-02  5.559e-02  0.1301 n y y y y       
   48   25    4  4.761e-03  2.381e-02  0.1279 n y y y y       
   49   10    4  3.109e-03  1.554e-02  0.1274 n y y y y       Subspace collapsed.
   50   15    4  1.420e-03  7.102e-03  0.1271 n y y y y       
   51   20    4  5.800e-04  2.900e-03  0.1270 n y y y y       
   52   25    4  3.905e-04  1.953e-03  0.1270 n y y y y       
   53   10    4  2.346e-04  1.173e-03  0.1270 n y y y y       Subspace collapsed.
   54   15    4  1.864e-04  9.319e-04  0.1270 n y y y y       
   55   20    4  7.574e-05  3.787e-04  0.1270 n y y y y       
   56   25    4  4.687e-05  2.344e-04  0.1270 n y y y y       
   57   10    4  2.487e-05  1.243e-04  0.1270 n y y y y       Subspace collapsed.
   58   15    4  1.505e-05  7.527e-05  0.1270 n y y y y       
   59   17    4  6.856e-06  3.428e-05  0.1270 n y y y y       
   60   19    4  5.312e-06  2.656e-05  0.1270 n y y y y       
   61   21    4  2.980e-06  1.490e-05  0.1270 n y y y y       
   62   23    4  1.289e-06  6.446e-06  0.1270 n y y y y       
   63   25    4  7.557e-07  3.778e-06  0.1270 n y y y y       
   64   10    4  3.202e-07  1.601e-06  0.1270 n y y y y       Subspace collapsed.
   65   11    4  2.901e-07  1.450e-06  0.1270 n y y y y       
   66   12    5  1.265e-07  6.325e-07  0.1270 y y y y y       Converged.
--------------------------------------------------------------------------------
  Davidson Summary: 
 ------------------------------------------------------------
  State  0: excitation energy =   0.1270 a.u.   (converged)
  State  1: excitation energy =   0.1527 a.u.   (converged)
  State  2: excitation energy =   0.1833 a.u.   (converged)
  State  3: excitation energy =   0.1981 a.u.   (converged)
  State  4: excitation energy =   0.1988 a.u.   (converged)
 ------------------------------------------------------------


--------------------------------------------------------------------------------
                             Excited State Summary
--------------------------------------------------------------------------------
--------------------------------------------------------------------------------

  Excited state 1 (singlet, A)                                     [converged]
  ----------------------------------------------------------------------------
  Term symbol:  2 (1) A                                     R^2 =  6.32469e-07

  Total energy:                                           -384.6387840732 a.u.
  Excitation energy:                                               3.455886 eV

  Osc. strength:                                                      0.000150
  Trans. dip. moment [a.u.]:           [   0.042030,   -0.000000,   -0.000000]
  <i|r^2|0> [a.u.]:                    [  -0.000000,   -0.000000,   -0.000000]


  V1^2 = 0.8022, V2^2 = 0.1978

  Important amplitudes:
      occ i      occ j       vir a       vir b          v   
    ---------------------------------------------------------
     33 (A) A               42 (A) A                  0.4322
     34 (A) A               45 (A) A                 -0.3811
    ---------------------------------------------------------
  ----------------------------------------------------------------------------


  Excited state 2 (singlet, A)                                     [converged]
  ----------------------------------------------------------------------------
  Term symbol:  3 (1) A                                     R^2 =  2.18734e-09

  Total energy:                                           -384.6130498184 a.u.
  Excitation energy:                                               4.156151 eV

  Osc. strength:                                                      0.083924
  Trans. dip. moment [a.u.]:           [   0.000000,    0.907858,    0.000000]
  <i|r^2|0> [a.u.]:                    [  -0.000000,    0.000000,   -0.000000]


  V1^2 = 0.8467, V2^2 = 0.1533

  Important amplitudes:
      occ i      occ j       vir a       vir b          v   
    ---------------------------------------------------------
     34 (A) A               42 (A) A                 -0.6208
     34 (A) A               51 (A) A                  0.1082
    ---------------------------------------------------------
  ----------------------------------------------------------------------------


  Excited state 3 (singlet, A)                                     [converged]
  ----------------------------------------------------------------------------
  Term symbol:  4 (1) A                                     R^2 =  1.57989e-09

  Total energy:                                           -384.5825061681 a.u.
  Excitation energy:                                               4.987286 eV

  Osc. strength:                                                      0.000000
  Trans. dip. moment [a.u.]:           [  -0.000000,    0.000000,    0.000000]
  <i|r^2|0> [a.u.]:                    [   0.000000,    0.000000,   -0.000000]


  V1^2 = 0.8730, V2^2 = 0.1270

  Important amplitudes:
      occ i      occ j       vir a       vir b          v   
    ---------------------------------------------------------
     34 (A) A               35 (A) A                  0.6012
     34 (A) A               57 (A) A                  0.1765
    ---------------------------------------------------------
  ----------------------------------------------------------------------------


  Excited state 4 (singlet, A)                                     [converged]
  ----------------------------------------------------------------------------
  Term symbol:  5 (1) A                                     R^2 =  2.86636e-09

  Total energy:                                           -384.5677118898 a.u.
  Excitation energy:                                               5.389859 eV

  Osc. strength:                                                      0.000000
  Trans. dip. moment [a.u.]:           [  -0.000000,   -0.000000,    0.000000]
  <i|r^2|0> [a.u.]:                    [  -0.000000,    0.000000,   -0.000000]


  V1^2 = 0.8737, V2^2 = 0.1263

  Important amplitudes:
      occ i      occ j       vir a       vir b          v   
    ---------------------------------------------------------
     34 (A) A               37 (A) A                 -0.6074
     34 (A) A               53 (A) A                  0.1654
    ---------------------------------------------------------
  ----------------------------------------------------------------------------


  Excited state 5 (singlet, A)                                     [converged]
  ----------------------------------------------------------------------------
  Term symbol:  6 (1) A                                     R^2 =  1.62659e-09

  Total energy:                                           -384.5670298984 a.u.
  Excitation energy:                                               5.408416 eV

  Osc. strength:                                                      0.000000
  Trans. dip. moment [a.u.]:           [   0.000000,   -0.000000,    0.000000]
  <i|r^2|0> [a.u.]:                    [   0.000000,   -0.000000,   -0.000000]


  V1^2 = 0.8718, V2^2 = 0.1282

  Important amplitudes:
      occ i      occ j       vir a       vir b          v   
    ---------------------------------------------------------
     34 (A) A               36 (A) A                 -0.5960
     34 (A) A               54 (A) A                  0.1818
    ---------------------------------------------------------
  ----------------------------------------------------------------------------


--------------------------------------------------------------------------------
  Time of ADC calculation:  CPU 472457.74 s  wall 24362.27 s
================================================================================
 
 --------------------------------------------------------------
 
                    Orbital Energies (a.u.)
 --------------------------------------------------------------
 
 Alpha MOs
 -- Occupied --
-11.2492 -11.2482 -11.2439 -11.2438 -11.2435 -11.2434 -11.2426 -11.2425
-11.2419 -11.2419  -1.1809  -1.1132  -1.0550  -1.0126  -0.9839  -0.8583
 -0.8394  -0.8148  -0.7097  -0.7019  -0.6797  -0.6263  -0.6139  -0.5855
 -0.5854  -0.5654  -0.5343  -0.5269  -0.4895  -0.4791  -0.4487  -0.3869
 -0.3202  -0.2883
 -- Virtual --
  0.0353   0.0374   0.0389   0.0509   0.0530   0.0673   0.0736   0.0753
  0.0928   0.0987   0.0991   0.1103   0.1183   0.1244   0.1319   0.1334
  0.1381   0.1450   0.1489   0.1503   0.1528   0.1545   0.1575   0.1650
  0.1660   0.1678   0.1881   0.1939   0.1951   0.1951   0.2007   0.2075
  0.2114   0.2129   0.2148   0.2221   0.2457   0.2491   0.2610   0.2744
  0.2810   0.2872   0.2974   0.3029   0.3090   0.3114   0.3238   0.3432
  0.3450   0.3455   0.3464   0.3555   0.3562   0.3670   0.3674   0.3768
  0.3843   0.3904   0.3961   0.4000   0.4033   0.4105   0.4120   0.4406
  0.4426   0.4503   0.4569   0.4621   0.4674   0.4693   0.4792   0.5029
  0.5072   0.5182   0.5198   0.5365   0.5509   0.5561   0.5573   0.5657
  0.5669   0.5845   0.5942   0.6093   0.6368   0.6461   0.6467   0.6469
  0.6490   0.6492   0.6541   0.6707   0.6786   0.6811   0.6838   0.6884
  0.6928   0.6979   0.7066   0.7141   0.7155   0.7276   0.7286   0.7346
  0.7383   0.7418   0.7572   0.7653   0.7762   0.7764   0.7816   0.7839
  0.7920   0.8181   0.8558   0.8587   0.8687   0.8712   0.8887   0.8937
  0.9086   0.9167   0.9218   0.9262   0.9325   0.9355   0.9451   0.9483
  0.9531   0.9624   0.9718   0.9755   1.0097   1.0116   1.0117   1.0130
  1.0221   1.0595   1.0644   1.0661   1.0789   1.0862   1.1065   1.1162
  1.1417   1.1686   1.1869   1.2025   1.2329   1.2435   1.2603   1.2785
  1.2935   1.2947   1.3422   1.3507   1.4340   1.4667   1.4746   1.4936
  1.5056   1.5183   1.5309   1.5346   1.5357   1.5507   1.5637   1.5898
  1.6050   1.6098   1.6201   1.6217   1.6356   1.6377   1.6386   1.6533
  1.6659   1.6688   1.6985   1.7481   1.7490   1.7612   1.7617   1.7911
  1.7941   1.7943   1.7963   1.7985   1.8347   1.8479   1.8538   1.8927
  1.9095   1.9113   1.9473   1.9531   1.9581   1.9717   1.9731   1.9768
  1.9827   2.0149   2.0546   2.0609   2.0827   2.0842   2.0872   2.0872
  2.0985   2.1097   2.1170   2.1250   2.1467   2.1487   2.1892   2.1917
  2.2321   2.2640   2.2657   2.2674   2.2854   2.2904   2.3012   2.3079
  2.3352   2.3381   2.3602   2.3709   2.3795   2.3951   2.4106   2.4166
  2.4395   2.4399   2.5027   2.5275   2.5329   2.5721   2.6053   2.6975
  2.7176   2.7233   2.7542   2.8076   2.8376   2.8400   2.8532   2.9505
  2.9534   2.9664   3.0432   3.0489   3.0683   3.1158   3.1997   3.2156
  3.2487   3.3694   3.3769   3.4030   3.5288   3.6693   3.6799   3.8674
  3.8814   4.5393   4.7623
 --------------------------------------------------------------
 
          Ground-State Mulliken Net Atomic Charges

     Atom                 Charge (a.u.)
  ----------------------------------------
      1 C                     0.365981
      2 C                     0.365981
      3 C                     0.461624
      4 C                     0.459635
      5 C                     0.459635
      6 C                     0.461624
      7 C                     0.461624
      8 C                     0.365981
      9 C                     0.365981
     10 C                     0.461624
     11 H                    -0.463073
     12 H                    -0.463073
     13 H                    -0.594350
     14 H                    -0.594350
     15 H                    -0.594350
     16 H                    -0.463073
     17 H                    -0.463073
     18 H                    -0.594350
  ----------------------------------------
  Sum of atomic charges =     0.000000

 -----------------------------------------------------------------
                    Cartesian Multipole Moments
 -----------------------------------------------------------------
    Charge (ESU x 10^10)
                 0.0000
    Dipole Moment (Debye)
         X       0.0000      Y      -0.0000      Z       0.0000
       Tot       0.0000
    Quadrupole Moments (Debye-Ang)
        XX     -51.7939     XY      -0.0000     YY     -51.9034
        XZ       0.0000     YZ      -0.0000     ZZ     -66.2195
    Octopole Moments (Debye-Ang^2)
       XXX       0.0000    XXY      -0.0000    XYY      -0.0000
       YYY      -0.0000    XXZ       0.0000    XYZ       0.0000
       YYZ      -0.0000    XZZ      -0.0000    YZZ      -0.0000
       ZZZ       0.0000
    Hexadecapole Moments (Debye-Ang^3)
      XXXX   -1085.4753   XXXY      -0.0000   XXYY    -269.2446
      XYYY      -0.0000   YYYY    -480.9327   XXXZ      -0.0000
      XXYZ      -0.0000   XYYZ       0.0000   YYYZ      -0.0000
      XXZZ    -247.4317   XYZZ       0.0000   YYZZ    -116.3769
      XZZZ      -0.0000   YZZZ       0.0000   ZZZZ     -82.4149
 -----------------------------------------------------------------
Archival summary:
1\1\Knecht17\SP\HF\BasisUnspecified\108\mscheure\MonApr2001:06:392020MonApr2001:06:392020\0\\#,HF,BasisUnspecified,\\0,1\C\C,1,1.41484\H,2,1.08315,1,118.865\C,2,1.37694,1,120.705,3,-180,0\H,4,1.08157,2,119.963,1,-180,0\C,4,1.41121,2,120.309,1,-0,0\H,6,1.08157,4,119.728,2,-180,0\C,6,1.37694,4,120.309,2,-0,0\H,8,1.08315,6,120.429,4,-180,0\C,8,1.41484,6,120.705,4,-0,0\C,10,1.41484,8,122.029,6,-180,0\H,11,1.08315,10,118.865,8,-0,0\C,11,1.37694,10,120.705,8,-180,0\H,13,1.08157,11,119.963,10,-180,0\C,13,1.41121,11,120.309,10,-0,0\H,15,1.08157,13,119.728,11,-180,0\C,15,1.37694,13,120.309,11,-0,0\H,17,1.08315,15,120.429,13,-180,0\\HF=-383.393702\\@

 Total job time:  24742.76s(wall), 473489.04s(cpu) 
 Mon Apr 20 01:06:39 2020

        *************************************************************
        *                                                           *
        *  Thank you very much for using Q-Chem.  Have a nice day.  *
        *                                                           *
        *************************************************************


