                  Welcome to Q-Chem
     A Quantum Leap Into The Future Of Chemistry


 Q-Chem 5.3 (devel), Q-Chem, Inc., Pleasanton, CA (2020)

 Yihan Shao,  Zhengting Gan,  E. Epifanovsky,  A. T. B. Gilbert,  M. Wormit,  
 J. Kussmann,  A. W. Lange,  A. Behn,  Jia Deng,  Xintian Feng,  D. Ghosh,  
 M. Goldey,  P. R. Horn,  L. D. Jacobson,  I. Kaliman,  T. Kus,  A. Landau,  
 Jie Liu,  E. I. Proynov,  R. M. Richard,  R. P. Steele,  E. J. Sundstrom,  
 H. L. Woodcock III,  P. M. Zimmerman,  D. Zuev,  B. Alam,  B. Albrecht,  
 E. Alguire,  S. A. Baeppler,  D. Barton,  Z. Benda,  Y. A. Bernard,  
 E. J. Berquist,  K. B. Bravaya,  H. Burton,  K. Carter-Fenk,  D. Casanova,  
 Chun-Min Chang,  Yunqing Chen,  A. Chien,  K. D. Closser,  M. P. Coons,  
 S. Coriani,  S. Dasgupta,  A. L. Dempwolff,  M. Diedenhofen,  Hainam Do,  
 R. G. Edgar,  Po-Tung Fang,  S. Faraji,  S. Fatehi,  Qingguo Feng,  
 J. Fosso-Tande,  J. Gayvert,  Qinghui Ge,  A. Ghysels,  G. Gidofalvi,  
 J. Gomes,  J. Gonthier,  A. Gunina,  D. Hait,  M. W. D. Hanson-Heine,  
 P. H. P. Harbach,  A. W. Hauser,  M. F. Herbst,  J. E. Herr,  
 E. G. Hohenstein,  Z. C. Holden,  Kerwin Hui,  B. C. Huynh,  T.-C. Jagau,  
 Hyunjun Ji,  B. Kaduk,  K. Khistyaev,  Jaehoon Kim,  P. Klunzinger,  K. Koh,  
 D. Kosenkov,  L. Koulias,  T. Kowalczyk,  C. M. Krauter,  A. Kunitsa,  
 Ka Un Lao,  A. Laurent,  K. V. Lawler,  Joonho Lee,  D. Lefrancois,  
 S. Lehtola,  D. S. Levine,  Yi-Pei Li,  You-Sheng Lin,  Fenglai Liu,  
 Kuan-Yu Liu,  E. Livshits,  M. Loipersberger,  A. Luenser,  P. Manohar,  
 E. Mansoor,  S. F. Manzer,  Shan-Ping Mao,  Yuezhi Mao,  N. Mardirossian,  
 A. V. Marenich,  T. Markovich,  L. A. Martinez-Martinez,  S. A. Maurer,  
 N. J. Mayhall,  S. C. McKenzie,  J.-M. Mewes,  P. Morgante,  A. F. Morrison,  
 J. W. Mullinax,  K. Nanda,  T. S. Nguyen-Beck,  R. Olivares-Amaya,  
 J. A. Parkhill,  S. K. Paul,  F. Pavosevic,  Zheng Pei,  T. M. Perrine,  
 F. Plasser,  P. Pokhilko,  S. Prager,  A. Prociuk,  E. Ramos,  B. Rana,  
 D. R. Rehn,  F. Rob,  M. Scheurer,  M. Schneider,  N. Sergueev,  
 S. M. Sharada,  S. Sharma,  D. W. Small,  T. Stauch,  C. J. Stein,  
 T. Stein,  Yu-Chuan Su,  S. P. Veccham,  Zhen Tao,  A. J. W. Thom,  
 A. Tkatchenko,  T. Tsuchimochi,  N. M. Tubman,  L. Vogt,  M. L. Vidal,  
 O. Vydrov,  M. A. Watson,  J. Wenzel,  M. de Wergifosse,  T. A. Wesolowski,  
 A. White,  J. Witte,  A. Yamada,  Jun Yang,  K. Yao,  S. Yeganeh,  
 S. R. Yost,  Zhi-Qiang You,  A. Zech,  Igor Ying Zhang,  Xing Zhang,  
 Yan Zhao,  Ying Zhu,  B. R. Brooks,  G. K. L. Chan,  C. J. Cramer,  
 M. S. Gordon,  W. J. Hehre,  A. Klamt,  M. W. Schmidt,  C. D. Sherrill,  
 D. G. Truhlar,  A. Aspuru-Guzik,  R. Baer,  A. T. Bell,  N. A. Besley,  
 Jeng-Da Chai,  A. E. DePrince, III,  R. A. DiStasio Jr.,  A. Dreuw,  
 B. D. Dunietz,  T. R. Furlani,  Chao-Ping Hsu,  Yousung Jung,  Jing Kong,  
 D. S. Lambrecht,  WanZhen Liang,  C. Ochsenfeld,  V. A. Rassolov,  
 L. V. Slipchenko,  J. E. Subotnik,  T. Van Voorhis,  J. M. Herbert,  
 A. I. Krylov,  P. M. W. Gill,  M. Head-Gordon

 Contributors to earlier versions of Q-Chem not listed above: 
 R. D. Adamson,  B. Austin,  J. Baker,  G. J. O. Beran,  K. Brandhorst,  
 S. T. Brown,  E. F. C. Byrd,  A. K. Chakraborty,  C.-L. Cheng,  
 Siu Hung Chien,  D. M. Chipman,  D. L. Crittenden,  H. Dachsel,  
 R. J. Doerksen,  A. D. Dutoi,  L. Fusti-Molnar,  W. A. Goddard III,  
 A. Golubeva-Zadorozhnaya,  S. R. Gwaltney,  G. Hawkins,  A. Heyden,  
 S. Hirata,  G. Kedziora,  F. J. Keil,  C. Kelley,  Jihan Kim,  R. A. King,  
 R. Z. Khaliullin,  P. P. Korambath,  W. Kurlancheek,  A. M. Lee,  M. S. Lee,  
 S. V. Levchenko,  Ching Yeh Lin,  D. Liotard,  R. C. Lochan,  I. Lotan,  
 P. E. Maslen,  N. Nair,  D. P. O'Neill,  D. Neuhauser,  E. Neuscamman,  
 C. M. Oana,  R. Olson,  B. Peters,  R. Peverati,  P. A. Pieniazek,  
 Y. M. Rhee,  J. Ritchie,  M. A. Rohrdanz,  E. Rosta,  N. J. Russ,  
 H. F. Schaefer III,  N. E. Schultz,  N. Shenvi,  A. C. Simmonett,  A. Sodt,  
 D. Stuck,  K. S. Thanthiriwatte,  V. Vanovschi,  Tao Wang,  A. Warshel,  
 C. F. Williams,  Q. Wu,  X. Xu,  W. Zhang

 Please cite Q-Chem as follows:
 Y. Shao et al., Mol. Phys. 113, 184-215 (2015)
 DOI: 10.1080/00268976.2014.952696

 Q-Chem 5.3.0 for Intel X86 EM64T Linux

 Parts of Q-Chem use Armadillo 9.800.1 (Horizon Scraper).
 http://arma.sourceforge.net/

 Q-Chem begins on Thu Apr  2 12:16:14 2020  

Host: 
0

     Scratch files written to /lscratch/mscheure/pna_adc2x_345057.Meister/qchem30172//
Processing $rem in /export/home/mscheure/data/qchem_ccman2_pe/qchem/config/preferences:
Processing $rem in /export/home/mscheure/.qchemrc:

Checking the input file for inconsistencies... 	...done.

--------------------------------------------------------------
User input:
--------------------------------------------------------------
$molecule
 0 1
C	0.0000000000	0.0000000000	0.7067572030
C	1.2195927633	0.0000000000	0.0169722341
C	1.2182354930	0.0000000000	-1.3785576094
C	0.0000000000	0.0000000000	-2.1022984644
C	-1.2182354930	0.0000000000	-1.3785576094
C	-1.2195927633	0.0000000000	0.0169722341
H	2.1553754221	0.0000000000	0.5783441717
H	2.1689860113	0.0000000000	-1.9216160742
H	-2.1689860113	0.0000000000	-1.9216160742
H	-2.1553754221	0.0000000000	0.5783441717
N	0.0000000000	0.0000000000	-3.4751838553
N	0.0000000000	0.0000000000	2.1763098305
O	-1.0841264669	0.0000000000	2.7410708406
O	1.0841264669	0.0000000000	2.7410708406
H	-0.8656098383	0.0000000000	-3.9919253642
H	0.8656098383	0.0000000000	-3.9919253642
$end

$rem
   METHOD            adc(2)-x
   BASIS             aug-cc-pvdz
   ee_singlets 	    [2,0,0,0]
   mem_total 490000
   mem_static 2000
   threads 24
   symmetry         false
   adc_davidson_maxiter 140
$end
--------------------------------------------------------------
 ----------------------------------------------------------------
             Standard Nuclear Orientation (Angstroms)
    I     Atom           X                Y                Z
 ----------------------------------------------------------------
    1      C       0.0000000000     0.0000000000     0.7153356937
    2      C       1.2195927633     0.0000000000     0.0255507248
    3      C       1.2182354930     0.0000000000    -1.3699791187
    4      C       0.0000000000     0.0000000000    -2.0937199737
    5      C      -1.2182354930     0.0000000000    -1.3699791187
    6      C      -1.2195927633     0.0000000000     0.0255507248
    7      H       2.1553754221     0.0000000000     0.5869226624
    8      H       2.1689860113     0.0000000000    -1.9130375835
    9      H      -2.1689860113     0.0000000000    -1.9130375835
   10      H      -2.1553754221     0.0000000000     0.5869226624
   11      N       0.0000000000     0.0000000000    -3.4666053646
   12      N       0.0000000000     0.0000000000     2.1848883212
   13      O      -1.0841264669     0.0000000000     2.7496493313
   14      O       1.0841264669     0.0000000000     2.7496493313
   15      H      -0.8656098383     0.0000000000    -3.9833468735
   16      H       0.8656098383     0.0000000000    -3.9833468735
 ----------------------------------------------------------------
 Molecular Point Group                 C2v   NOp =  4
 Largest Abelian Subgroup              C2v   NOp =  4
 Nuclear Repulsion Energy =         493.65919820 hartrees
 There are       36 alpha and       36 beta electrons
 Requested basis set is aug-cc-pVDZ
 There are 120 shells and 284 basis functions
 Total memory of 490000 MB is distributed as follows: 
   MEM_STATIC is set to 2000 MB
   QALLOC/CCMAN JOB total memory use is  488000 MB
 Warning: actual memory use might exceed 490000 MB

 Total QAlloc Memory Limit 490000 MB
 Mega-Array Size      1956 MB
 MEM_STATIC part      2000 MB
 A cutoff of  1.0D-11 yielded   6910 shell pairs
 There are     38766 function pairs (     44435 Cartesian)
 Smallest overlap matrix eigenvalue = 1.97E-06

 Q-Chem warning in module stvman/mkSTV.C, line 318:

 Overlap eigenvalue is smaller than square root of threshold
 Use THRESH >= 12 to get rid of this warning


 Scale SEOQF with 1.000000e-01/1.000000e-01/1.000000e-01

 Standard Electronic Orientation quadrupole field applied
 Nucleus-field energy     =    -0.0000000327 hartrees
 Guess from superposition of atomic densities
 Warning:  Energy on first SCF cycle will be non-variational
 SAD guess density has 72.000000 electrons
 A restricted Hartree-Fock SCF calculation will be
 performed using Pulay DIIS extrapolation
 SCF converges when DIIS error is below 1.0E-08
 using 24 threads for integral computing
 -------------------------------------------------------
 OpenMP Integral computing Module                
 Release: version 2.0, May 2017, Q-Chem Inc. Pleasanton 
 -------------------------------------------------------
 ---------------------------------------
  Cycle       Energy         DIIS Error
 ---------------------------------------
    1    -493.0966572890      4.03E-02
    2    -489.0251016760      5.17E-03
    3    -489.1607661233      4.00E-03
    4    -489.2732013033      5.15E-04
    5    -489.2771997215      1.89E-04
    6    -489.2776797124      6.02E-05
    7    -489.2777675310      1.90E-05
    8    -489.2777825729      8.69E-06
    9    -489.2777846971      2.88E-06
   10    -489.2777851052      1.15E-06
   11    -489.2777851853      6.38E-07
   12    -489.2777852063      1.81E-07
   13    -489.2777852083      6.89E-08
   14    -489.2777852082      2.65E-08
   15    -489.2777852039      1.87E-08
   16    -489.2777852048      1.40E-08
   17    -489.2777852039      2.03E-08
   18    -489.2777851989      1.56E-08
   19    -489.2777852009      1.08E-08
   20    -489.2777852035      6.75E-09 Convergence criterion met
 ---------------------------------------
 SCF time:  CPU 669.61 s  wall 27.90 s
 SCF   energy in the final basis set = -489.27778520
 Total energy in the final basis set = -489.27778520
================================================================================
|                                                                              |
|                                 A D C  M A N                                 |
|                                                                              |
 ------------------------------------------------------------------------------ 
|                                                                              |
| Components:                                                                  |
|                                                                              |
| - libvmm - 1.3-trunk                                                         |
|   Authors:                                                                   |
|   Evgeny Epifanovsky, Ilya Kaliman                                           |
|                                                                              |
| - libtensor - 2.5-trunk                                                      |
|   Authors:                                                                   |
|   Evgeny Epifanovsky, Michael Wormit, Dmitry Zuev, Sam Manzer,               |
|   Ilya Kaliman                                                               |
|                                                                              |
| - libwfa - 1.1-trunk                                                         |
|   Authors:                                                                   |
|   Felix Plasser, Stefanie Mewes (Baeppler), Benjamin Thomitzni,              |
|   Michael Wormit, Feng Chen, Anna I. Krylov, Pavel Pokhilko                  |
|                                                                              |
| - libadc - 1.1-trunk                                                         |
|   Authors:                                                                   |
|   Michael Wormit, Adrian L. Dempwolff, Philipp H. P. Harbach,                |
|   Caroline Krauter, Dirk Rehn, Matthias Schneider, Jan Wenzel                |
|                                                                              |
| - adcman - 2.6-trunk                                                         |
|   Authors:                                                                   |
|   Michael Wormit, Adrian L. Dempwolff, Philipp H. P. Harbach,                |
|   Caroline Krauter, Daniel Lefrancois, Jan-Michael Mewes, Dirk Rehn,         |
|   Matthias Schneider, Jan Wenzel, Andreas Dreuw                              |
|                                                                              |
| Authors of earlier versions of ADCMAN:                                       |
| Andreas Dreuw, Jan Hendrik Starcke, Dirk Rehn, Michael Wormit                |
|                                                                              |
================================================================================

 
 Alpha MOs, Restricted
 -- Occupied --                  
-20.598 -20.598 -15.850 -15.608 -11.331 -11.295 -11.283 -11.283
  1 B1    1 A1    2 A1    3 A1    4 A1    5 A1    2 B1    6 A1                 
-11.261 -11.261  -1.600  -1.394  -1.262  -1.174  -1.064  -1.045
  3 B1    7 A1    8 A1    4 B1    9 A1   10 A1   11 A1    5 B1                 
 -0.940  -0.868  -0.824  -0.771  -0.737  -0.731  -0.710  -0.709
 12 A1    6 B1   13 A1   14 A1    7 B1   15 A1    8 B1    1 B2                 
 -0.642  -0.629  -0.613  -0.588  -0.562  -0.521  -0.484  -0.482
 16 A1    9 B1   10 B1   17 A1    2 B2   11 B1   18 A1   12 B1                 
 -0.477  -0.446  -0.367  -0.322
  3 B2    1 A2    2 A2    4 B2                                                 
 -- Virtual --                   
  0.020   0.033   0.043   0.054   0.056   0.064   0.085   0.089
 19 A1   13 B1   20 A1    5 B2   14 B1   21 A1   15 B1    3 A2                 
  0.100   0.110   0.119   0.126   0.129   0.134   0.137   0.150
 22 A1    6 B2   23 A1   24 A1   16 B1    4 A2    7 B2   25 A1                 
  0.150   0.151   0.163   0.164   0.172   0.174   0.178   0.188
  8 B2   17 B1   18 B1   26 A1   27 A1   19 B1   28 A1    5 A2                 
  0.190   0.195   0.200   0.207   0.209   0.213   0.229   0.239
  9 B2   10 B2   20 B1   29 A1   11 B2   21 B1   22 B1   30 A1                 
  0.260   0.261   0.274   0.276   0.289   0.299   0.305   0.307
 31 A1   23 B1   12 B2   32 A1   33 A1    6 A2   34 A1   24 B1                 
  0.321   0.333   0.343   0.344   0.354   0.361   0.364   0.371
 35 A1   13 B2   36 A1   25 B1   26 B1   14 B2   37 A1    7 A2                 
  0.372   0.382   0.389   0.393   0.396   0.401   0.406   0.416
 27 B1   38 A1   28 B1   39 A1   15 B2   40 A1   29 B1   41 A1                 
  0.420   0.430   0.433   0.440   0.462   0.476   0.489   0.493
  8 A2   30 B1   42 A1   31 B1   43 A1   32 B1   44 A1    9 A2                 
  0.504   0.507   0.508   0.523   0.527   0.560   0.572   0.573
 45 A1   16 B2   33 B1   17 B2   46 A1   47 A1   34 B1   10 A2                 
  0.585   0.591   0.593   0.603   0.621   0.624   0.639   0.646
 48 A1   35 B1   18 B2   49 A1   50 A1   36 B1   37 B1   19 B2                 
  0.653   0.662   0.668   0.684   0.687   0.690   0.690   0.693
 51 A1   38 B1   52 A1   11 A2   20 B2   53 A1   39 B1   54 A1                 
  0.717   0.725   0.737   0.740   0.752   0.763   0.767   0.773
 40 B1   41 B1   12 A2   55 A1   56 A1   42 B1   21 B2   43 B1                 
  0.787   0.813   0.839   0.844   0.861   0.877   0.883   0.891
 57 A1   22 B2   44 B1   45 B1   58 A1   46 B1   23 B2   59 A1                 
  0.891   0.893   0.906   0.922   0.935   0.936   0.943   0.946
 24 B2   13 A2   14 A2   60 A1   25 B2   47 B1   15 A2   26 B2                 
  0.947   0.980   0.998   1.002   1.012   1.013   1.022   1.058
 61 A1   62 A1   63 A1   48 B1   16 A2   64 A1   49 B1   65 A1                 
  1.075   1.079   1.114   1.133   1.133   1.158   1.186   1.231
 27 B2   17 A2   66 A1   18 A2   50 B1   67 A1   28 B2   51 B1                 
  1.249   1.257   1.275   1.276   1.294   1.300   1.309   1.340
 19 A2   68 A1   20 A2   52 B1   69 A1   29 B2   30 B2   53 B1                 
  1.358   1.383   1.392   1.437   1.452   1.475   1.485   1.493
 70 A1   21 A2   71 A1   54 B1   55 B1   31 B2   32 B2   22 A2                 
  1.507   1.509   1.540   1.549   1.571   1.583   1.617   1.621
 56 B1   72 A1   73 A1   74 A1   75 A1   57 B1   33 B2   58 B1                 
  1.629   1.638   1.644   1.649   1.651   1.682   1.684   1.698
 59 B1   76 A1   60 B1   77 A1   34 B2   23 A2   61 B1   24 A2                 
  1.714   1.718   1.729   1.741   1.759   1.770   1.807   1.863
 35 B2   36 B2   78 A1   62 B1   79 A1   80 A1   63 B1   37 B2                 
  1.866   1.882   1.884   1.889   1.895   1.947   1.961   1.975
 25 A2   64 B1   81 A1   38 B2   82 A1   65 B1   83 A1   39 B2                 
  1.978   1.991   2.002   2.015   2.060   2.107   2.116   2.119
 66 B1   40 B2   26 A2   84 A1   67 B1   68 B1   85 A1   27 A2                 
  2.125   2.191   2.192   2.193   2.211   2.215   2.239   2.251
 86 A1   87 A1   41 B2   69 B1   28 A2   88 A1   70 B1   42 B2                 
  2.253   2.259   2.285   2.294   2.337   2.349   2.352   2.378
 89 A1   29 A2   71 B1   90 A1   91 A1   72 B1   30 A2   73 B1                 
  2.410   2.413   2.447   2.459   2.485   2.497   2.546   2.582
 92 A1   74 B1   93 A1   94 A1   31 A2   43 B2   95 A1   32 A2                 
  2.588   2.633   2.657   2.658   2.707   2.774   2.778   2.787
 75 B1   96 A1   44 B2   76 B1   97 A1   77 B1   98 A1   33 A2                 
  2.827   2.828   2.859   2.873   2.945   2.956   3.011   3.050
 78 B1   99 A1   79 B1   45 B2  100 A1   80 B1  101 A1  102 A1                 
  3.113   3.140   3.204   3.269   3.284   3.313   3.459   3.618
103 A1   81 B1  104 A1   82 B1   83 B1  105 A1  106 A1  107 A1                 
  3.640   3.678   3.684   3.719   3.749   3.781   3.796   3.820
 84 B1   34 A2   46 B2   85 B1  108 A1   86 B1   47 B2   87 B1                 
  3.841   3.870   3.987   4.021   4.214   4.249   4.443   4.768
109 A1  110 A1   88 B1   35 A2  111 A1   89 B1  112 A1  113 A1                 
 
 Beta MOs, Restricted
 -- Occupied --                  
-20.598 -20.598 -15.850 -15.608 -11.331 -11.295 -11.283 -11.283
  1 B1    1 A1    2 A1    3 A1    4 A1    5 A1    2 B1    6 A1                 
-11.261 -11.261  -1.600  -1.394  -1.262  -1.174  -1.064  -1.045
  3 B1    7 A1    8 A1    4 B1    9 A1   10 A1   11 A1    5 B1                 
 -0.940  -0.868  -0.824  -0.771  -0.737  -0.731  -0.710  -0.709
 12 A1    6 B1   13 A1   14 A1    7 B1   15 A1    8 B1    1 B2                 
 -0.642  -0.629  -0.613  -0.588  -0.562  -0.521  -0.484  -0.482
 16 A1    9 B1   10 B1   17 A1    2 B2   11 B1   18 A1   12 B1                 
 -0.477  -0.446  -0.367  -0.322
  3 B2    1 A2    2 A2    4 B2                                                 
 -- Virtual --                   
  0.020   0.033   0.043   0.054   0.056   0.064   0.085   0.089
 19 A1   13 B1   20 A1    5 B2   14 B1   21 A1   15 B1    3 A2                 
  0.100   0.110   0.119   0.126   0.129   0.134   0.137   0.150
 22 A1    6 B2   23 A1   24 A1   16 B1    4 A2    7 B2   25 A1                 
  0.150   0.151   0.163   0.164   0.172   0.174   0.178   0.188
  8 B2   17 B1   18 B1   26 A1   27 A1   19 B1   28 A1    5 A2                 
  0.190   0.195   0.200   0.207   0.209   0.213   0.229   0.239
  9 B2   10 B2   20 B1   29 A1   11 B2   21 B1   22 B1   30 A1                 
  0.260   0.261   0.274   0.276   0.289   0.299   0.305   0.307
 31 A1   23 B1   12 B2   32 A1   33 A1    6 A2   34 A1   24 B1                 
  0.321   0.333   0.343   0.344   0.354   0.361   0.364   0.371
 35 A1   13 B2   36 A1   25 B1   26 B1   14 B2   37 A1    7 A2                 
  0.372   0.382   0.389   0.393   0.396   0.401   0.406   0.416
 27 B1   38 A1   28 B1   39 A1   15 B2   40 A1   29 B1   41 A1                 
  0.420   0.430   0.433   0.440   0.462   0.476   0.489   0.493
  8 A2   30 B1   42 A1   31 B1   43 A1   32 B1   44 A1    9 A2                 
  0.504   0.507   0.508   0.523   0.527   0.560   0.572   0.573
 45 A1   16 B2   33 B1   17 B2   46 A1   47 A1   34 B1   10 A2                 
  0.585   0.591   0.593   0.603   0.621   0.624   0.639   0.646
 48 A1   35 B1   18 B2   49 A1   50 A1   36 B1   37 B1   19 B2                 
  0.653   0.662   0.668   0.684   0.687   0.690   0.690   0.693
 51 A1   38 B1   52 A1   11 A2   20 B2   53 A1   39 B1   54 A1                 
  0.717   0.725   0.737   0.740   0.752   0.763   0.767   0.773
 40 B1   41 B1   12 A2   55 A1   56 A1   42 B1   21 B2   43 B1                 
  0.787   0.813   0.839   0.844   0.861   0.877   0.883   0.891
 57 A1   22 B2   44 B1   45 B1   58 A1   46 B1   23 B2   59 A1                 
  0.891   0.893   0.906   0.922   0.935   0.936   0.943   0.946
 24 B2   13 A2   14 A2   60 A1   25 B2   47 B1   15 A2   26 B2                 
  0.947   0.980   0.998   1.002   1.012   1.013   1.022   1.058
 61 A1   62 A1   63 A1   48 B1   16 A2   64 A1   49 B1   65 A1                 
  1.075   1.079   1.114   1.133   1.133   1.158   1.186   1.231
 27 B2   17 A2   66 A1   18 A2   50 B1   67 A1   28 B2   51 B1                 
  1.249   1.257   1.275   1.276   1.294   1.300   1.309   1.340
 19 A2   68 A1   20 A2   52 B1   69 A1   29 B2   30 B2   53 B1                 
  1.358   1.383   1.392   1.437   1.452   1.475   1.485   1.493
 70 A1   21 A2   71 A1   54 B1   55 B1   31 B2   32 B2   22 A2                 
  1.507   1.509   1.540   1.549   1.571   1.583   1.617   1.621
 56 B1   72 A1   73 A1   74 A1   75 A1   57 B1   33 B2   58 B1                 
  1.629   1.638   1.644   1.649   1.651   1.682   1.684   1.698
 59 B1   76 A1   60 B1   77 A1   34 B2   23 A2   61 B1   24 A2                 
  1.714   1.718   1.729   1.741   1.759   1.770   1.807   1.863
 35 B2   36 B2   78 A1   62 B1   79 A1   80 A1   63 B1   37 B2                 
  1.866   1.882   1.884   1.889   1.895   1.947   1.961   1.975
 25 A2   64 B1   81 A1   38 B2   82 A1   65 B1   83 A1   39 B2                 
  1.978   1.991   2.002   2.015   2.060   2.107   2.116   2.119
 66 B1   40 B2   26 A2   84 A1   67 B1   68 B1   85 A1   27 A2                 
  2.125   2.191   2.192   2.193   2.211   2.215   2.239   2.251
 86 A1   87 A1   41 B2   69 B1   28 A2   88 A1   70 B1   42 B2                 
  2.253   2.259   2.285   2.294   2.337   2.349   2.352   2.378
 89 A1   29 A2   71 B1   90 A1   91 A1   72 B1   30 A2   73 B1                 
  2.410   2.413   2.447   2.459   2.485   2.497   2.546   2.582
 92 A1   74 B1   93 A1   94 A1   31 A2   43 B2   95 A1   32 A2                 
  2.588   2.633   2.657   2.658   2.707   2.774   2.778   2.787
 75 B1   96 A1   44 B2   76 B1   97 A1   77 B1   98 A1   33 A2                 
  2.827   2.828   2.859   2.873   2.945   2.956   3.011   3.050
 78 B1   99 A1   79 B1   45 B2  100 A1   80 B1  101 A1  102 A1                 
  3.113   3.140   3.204   3.269   3.284   3.313   3.459   3.618
103 A1   81 B1  104 A1   82 B1   83 B1  105 A1  106 A1  107 A1                 
  3.640   3.678   3.684   3.719   3.749   3.781   3.796   3.820
 84 B1   34 A2   46 B2   85 B1  108 A1   86 B1   47 B2   87 B1                 
  3.841   3.870   3.987   4.021   4.214   4.249   4.443   4.768
109 A1  110 A1   88 B1   35 A2  111 A1   89 B1  112 A1  113 A1                 

--------------------------------------------------------------------------------
                                   HF Summary                                   
--------------------------------------------------------------------------------
  Energy:                                                 -489.2777852035 a.u.
  Dip. moment [a.u.]:                  [  -0.000000,   -0.000000,   -2.952764]
  Total dipole [Debye]:                                               7.505179
  <r^2> [a.u.]:                        [ 305.796468,   46.010441, 1222.256291]
  Total <r^2> [a.u.]:                                              1574.063201
--------------------------------------------------------------------------------

--------------------------------------------------------------------------------
                                 MP(2) Summary                                  
--------------------------------------------------------------------------------
  MP energy contribution:                                   -1.5926354537 a.u.
  Total energy:                                           -490.8704206571 a.u.
  Dip. moment [a.u.]:                  [  -0.000006,    0.000000,   -2.752271]
  Total dipole [Debye]:                                               6.995577
  <r^2> [a.u.]:                        [ 305.899731,   46.080753, 1220.323924]
  Total <r^2> [a.u.]:                                              1572.304408
--------------------------------------------------------------------------------
  Starting Davidson for singlet states of irrep A1 ... 
--------------------------------------------------------------------------------
   It NVec Conv  Avg. Norm  Max. Norm  Conv. states           Remark
--------------------------------------------------------------------------------
         2    0  4.106e-01  6.245e-01  0.3635 n n             Guess.
    1    4    0  2.317e-01  3.591e-01  0.2333 n n             
    2    6    0  8.599e-02  1.382e-01  0.1542 n n             
    3    8    0  4.701e-02  7.485e-02  0.1400 n n             
    4   10    0  3.294e-02  5.026e-02  0.1343 n n             
    5    4    0  1.845e-02  2.673e-02  0.1328 n n             Subspace collapsed.
    6    6    0  2.354e-02  3.884e-02  0.1319 n n             
    7    8    0  2.740e-02  5.219e-02  0.1312 n n             
    8   10    0  3.566e-02  7.078e-02  0.1309 n n             
    9    4    0  2.601e-02  5.166e-02  0.1308 n n             Subspace collapsed.
   10    6    0  3.011e-02  5.998e-02  0.1308 n n             
   11    8    0  1.828e-02  3.649e-02  0.1308 n n             
   12   10    0  1.770e-02  3.536e-02  0.1308 n n             
   13    4    0  9.519e-03  1.902e-02  0.1308 n n             Subspace collapsed.
   14    6    0  1.521e-02  3.041e-02  0.1308 n n             
   15    8    0  1.206e-02  2.412e-02  0.1308 n n             
   16   10    0  9.879e-03  1.976e-02  0.1308 n n             
   17    4    0  7.689e-03  1.538e-02  0.1308 n n             Subspace collapsed.
   18    6    0  6.456e-03  1.291e-02  0.1308 n n             
   19    8    0  4.138e-03  8.276e-03  0.1308 n n             
   20   10    0  5.018e-03  1.004e-02  0.1308 n n             
   21    4    0  2.573e-03  5.147e-03  0.1308 n n             Subspace collapsed.
   22    6    0  3.831e-03  7.662e-03  0.1308 n n             
   23    8    0  3.328e-03  6.655e-03  0.1308 n n             
   24   10    0  3.093e-03  6.186e-03  0.1308 n n             
   25    4    0  2.236e-03  4.472e-03  0.1308 n n             Subspace collapsed.
   26    6    0  2.029e-03  4.059e-03  0.1308 n n             
   27    8    0  1.192e-03  2.383e-03  0.1308 n n             
   28   10    0  1.663e-03  3.327e-03  0.1308 n n             
   29    4    0  8.713e-04  1.743e-03  0.1308 n n             Subspace collapsed.
   30    6    0  1.312e-03  2.625e-03  0.1308 n n             
   31    8    1  1.080e-03  2.161e-03  0.1308 y n             
   32   10    1  1.110e-03  2.220e-03  0.1308 y n             
   33    4    1  7.698e-04  1.540e-03  0.1308 y n             Subspace collapsed.
   34    6    1  7.186e-04  1.437e-03  0.1308 y n             
   35    8    1  4.182e-04  8.364e-04  0.1308 y n             
   36   10    1  5.988e-04  1.198e-03  0.1308 y n             
   37    4    1  3.218e-04  6.437e-04  0.1308 y n             Subspace collapsed.
   38    6    1  4.750e-04  9.500e-04  0.1308 y n             
   39    8    1  3.732e-04  7.464e-04  0.1308 y n             
   40   10    1  4.167e-04  8.334e-04  0.1308 y n             
   41    4    1  2.730e-04  5.460e-04  0.1308 y n             Subspace collapsed.
   42    6    1  2.615e-04  5.230e-04  0.1308 y n             
   43    8    1  1.544e-04  3.088e-04  0.1308 y n             
   44   10    1  2.179e-04  4.358e-04  0.1308 y n             
   45    4    1  1.221e-04  2.442e-04  0.1308 y n             Subspace collapsed.
   46    6    1  1.743e-04  3.486e-04  0.1308 y n             
   47    8    1  1.334e-04  2.668e-04  0.1308 y n             
   48   10    1  1.591e-04  3.183e-04  0.1308 y n             
   49    4    1  9.855e-05  1.971e-04  0.1308 y n             Subspace collapsed.
   50    6    1  9.687e-05  1.937e-04  0.1308 y n             
   51    8    1  5.791e-05  1.158e-04  0.1308 y n             
   52   10    1  7.946e-05  1.589e-04  0.1308 y n             
   53    4    1  4.646e-05  9.292e-05  0.1308 y n             Subspace collapsed.
   54    6    1  6.441e-05  1.288e-04  0.1308 y n             
   55    8    1  4.939e-05  9.878e-05  0.1308 y n             
   56   10    1  6.119e-05  1.224e-04  0.1308 y n             
   57    4    1  3.645e-05  7.291e-05  0.1308 y n             Subspace collapsed.
   58    6    1  3.625e-05  7.250e-05  0.1308 y n             
   59    8    1  2.175e-05  4.349e-05  0.1308 y n             
   60   10    1  2.980e-05  5.959e-05  0.1308 y n             
   61    4    1  1.752e-05  3.505e-05  0.1308 y n             Subspace collapsed.
   62    6    1  2.387e-05  4.774e-05  0.1308 y n             
   63    8    1  1.896e-05  3.792e-05  0.1308 y n             
   64   10    1  2.352e-05  4.704e-05  0.1308 y n             
   65    4    1  1.391e-05  2.782e-05  0.1308 y n             Subspace collapsed.
   66    6    1  1.360e-05  2.721e-05  0.1308 y n             
   67    8    1  8.242e-06  1.648e-05  0.1308 y n             
   68    9    1  1.192e-05  2.385e-05  0.1308 y n             
   69   10    1  1.279e-05  2.558e-05  0.1308 y n             
   70    3    1  4.807e-06  9.614e-06  0.1308 y n             Subspace collapsed.
   71    4    1  3.256e-06  6.513e-06  0.1308 y n             
   72    5    1  1.858e-06  3.717e-06  0.1308 y n             
   73    6    1  1.611e-06  3.222e-06  0.1308 y n             
   74    7    1  2.209e-06  4.419e-06  0.1308 y n             
   75    8    1  2.087e-06  4.174e-06  0.1308 y n             
   76    9    1  1.965e-06  3.930e-06  0.1308 y n             
   77   10    1  1.184e-06  2.369e-06  0.1308 y n             
   78    3    1  5.906e-07  1.181e-06  0.1308 y n             Subspace collapsed.
   79    4    2  4.113e-07  8.225e-07  0.1308 y y             Converged.
--------------------------------------------------------------------------------
  Davidson Summary: 
 ------------------------------------------------------------
  State  0: excitation energy =   0.1308 a.u.   (converged)
  State  1: excitation energy =   0.1980 a.u.   (converged)
 ------------------------------------------------------------


--------------------------------------------------------------------------------
                             Excited State Summary
--------------------------------------------------------------------------------
--------------------------------------------------------------------------------

  Excited state 1 (singlet, A1)                                    [converged]
  ----------------------------------------------------------------------------
  Term symbol:  2 (1) A1                                    R^2 =  4.22771e-10

  Total energy:                                           -490.7396482677 a.u.
  Excitation energy:                                               3.558498 eV

  Osc. strength:                                                      0.347140
  Trans. dip. moment [a.u.]:           [  -0.000021,    0.000000,   -1.995445]
  <i|r^2|0> [a.u.]:                    [   0.695299,    0.001234,   -2.815832]


  V1^2 = 0.8189, V2^2 = 0.1811

  Important amplitudes:
       occ i       occ j       vir a        vir b           v   
    -------------------------------------------------------------
      4 (B2) A                 5 (B2) A                   0.6115
      4 (B2) A                 6 (B2) A                   0.0763
    -------------------------------------------------------------
  ----------------------------------------------------------------------------


  Excited state 2 (singlet, A1)                                    [converged]
  ----------------------------------------------------------------------------
  Term symbol:  3 (1) A1                                    R^2 =  8.22519e-07

  Total energy:                                           -490.6724552305 a.u.
  Excitation energy:                                               5.386913 eV

  Osc. strength:                                                      0.018759
  Trans. dip. moment [a.u.]:           [  -0.000010,    0.000000,   -0.377017]
  <i|r^2|0> [a.u.]:                    [   1.604656,    0.381036,   -9.238676]


  V1^2 = 0.8206, V2^2 = 0.1794

  Important amplitudes:
       occ i       occ j       vir a        vir b           v   
    -------------------------------------------------------------
      4 (B2) A                 6 (B2) A                  -0.3957
      4 (B2) A                 7 (B2) A                   0.2665
    -------------------------------------------------------------
  ----------------------------------------------------------------------------


--------------------------------------------------------------------------------
  Time of ADC calculation:  CPU 27110.05 s  wall 1654.60 s
================================================================================
 
 --------------------------------------------------------------
             Orbital Energies (a.u.) and Symmetries
 --------------------------------------------------------------
 
 Alpha MOs, Restricted
 -- Occupied --                  
-20.598 -20.598 -15.850 -15.608 -11.331 -11.295 -11.283 -11.283
  1 B1    1 A1    2 A1    3 A1    4 A1    5 A1    2 B1    6 A1                 
-11.261 -11.261  -1.600  -1.394  -1.262  -1.174  -1.064  -1.045
  3 B1    7 A1    8 A1    4 B1    9 A1   10 A1   11 A1    5 B1                 
 -0.940  -0.868  -0.824  -0.771  -0.737  -0.731  -0.710  -0.709
 12 A1    6 B1   13 A1   14 A1    7 B1   15 A1    8 B1    1 B2                 
 -0.642  -0.629  -0.613  -0.588  -0.562  -0.521  -0.484  -0.482
 16 A1    9 B1   10 B1   17 A1    2 B2   11 B1   18 A1   12 B1                 
 -0.477  -0.446  -0.367  -0.322
  3 B2    1 A2    2 A2    4 B2                                                 
 -- Virtual --                   
  0.020   0.033   0.043   0.054   0.056   0.064   0.085   0.089
 19 A1   13 B1   20 A1    5 B2   14 B1   21 A1   15 B1    3 A2                 
  0.100   0.110   0.119   0.126   0.129   0.134   0.137   0.150
 22 A1    6 B2   23 A1   24 A1   16 B1    4 A2    7 B2   25 A1                 
  0.150   0.151   0.163   0.164   0.172   0.174   0.178   0.188
  8 B2   17 B1   18 B1   26 A1   27 A1   19 B1   28 A1    5 A2                 
  0.190   0.195   0.200   0.207   0.209   0.213   0.229   0.239
  9 B2   10 B2   20 B1   29 A1   11 B2   21 B1   22 B1   30 A1                 
  0.260   0.261   0.274   0.276   0.289   0.299   0.305   0.307
 31 A1   23 B1   12 B2   32 A1   33 A1    6 A2   34 A1   24 B1                 
  0.321   0.333   0.343   0.344   0.354   0.361   0.364   0.371
 35 A1   13 B2   36 A1   25 B1   26 B1   14 B2   37 A1    7 A2                 
  0.372   0.382   0.389   0.393   0.396   0.401   0.406   0.416
 27 B1   38 A1   28 B1   39 A1   15 B2   40 A1   29 B1   41 A1                 
  0.420   0.430   0.433   0.440   0.462   0.476   0.489   0.493
  8 A2   30 B1   42 A1   31 B1   43 A1   32 B1   44 A1    9 A2                 
  0.504   0.507   0.508   0.523   0.527   0.560   0.572   0.573
 45 A1   16 B2   33 B1   17 B2   46 A1   47 A1   34 B1   10 A2                 
  0.585   0.591   0.593   0.603   0.621   0.624   0.639   0.646
 48 A1   35 B1   18 B2   49 A1   50 A1   36 B1   37 B1   19 B2                 
  0.653   0.662   0.668   0.684   0.687   0.690   0.690   0.693
 51 A1   38 B1   52 A1   11 A2   20 B2   53 A1   39 B1   54 A1                 
  0.717   0.725   0.737   0.740   0.752   0.763   0.767   0.773
 40 B1   41 B1   12 A2   55 A1   56 A1   42 B1   21 B2   43 B1                 
  0.787   0.813   0.839   0.844   0.861   0.877   0.883   0.891
 57 A1   22 B2   44 B1   45 B1   58 A1   46 B1   23 B2   59 A1                 
  0.891   0.893   0.906   0.922   0.935   0.936   0.943   0.946
 24 B2   13 A2   14 A2   60 A1   25 B2   47 B1   15 A2   26 B2                 
  0.947   0.980   0.998   1.002   1.012   1.013   1.022   1.058
 61 A1   62 A1   63 A1   48 B1   16 A2   64 A1   49 B1   65 A1                 
  1.075   1.079   1.114   1.133   1.133   1.158   1.186   1.231
 27 B2   17 A2   66 A1   18 A2   50 B1   67 A1   28 B2   51 B1                 
  1.249   1.257   1.275   1.276   1.294   1.300   1.309   1.340
 19 A2   68 A1   20 A2   52 B1   69 A1   29 B2   30 B2   53 B1                 
  1.358   1.383   1.392   1.437   1.452   1.475   1.485   1.493
 70 A1   21 A2   71 A1   54 B1   55 B1   31 B2   32 B2   22 A2                 
  1.507   1.509   1.540   1.549   1.571   1.583   1.617   1.621
 56 B1   72 A1   73 A1   74 A1   75 A1   57 B1   33 B2   58 B1                 
  1.629   1.638   1.644   1.649   1.651   1.682   1.684   1.698
 59 B1   76 A1   60 B1   77 A1   34 B2   23 A2   61 B1   24 A2                 
  1.714   1.718   1.729   1.741   1.759   1.770   1.807   1.863
 35 B2   36 B2   78 A1   62 B1   79 A1   80 A1   63 B1   37 B2                 
  1.866   1.882   1.884   1.889   1.895   1.947   1.961   1.975
 25 A2   64 B1   81 A1   38 B2   82 A1   65 B1   83 A1   39 B2                 
  1.978   1.991   2.002   2.015   2.060   2.107   2.116   2.119
 66 B1   40 B2   26 A2   84 A1   67 B1   68 B1   85 A1   27 A2                 
  2.125   2.191   2.192   2.193   2.211   2.215   2.239   2.251
 86 A1   87 A1   41 B2   69 B1   28 A2   88 A1   70 B1   42 B2                 
  2.253   2.259   2.285   2.294   2.337   2.349   2.352   2.378
 89 A1   29 A2   71 B1   90 A1   91 A1   72 B1   30 A2   73 B1                 
  2.410   2.413   2.447   2.459   2.485   2.497   2.546   2.582
 92 A1   74 B1   93 A1   94 A1   31 A2   43 B2   95 A1   32 A2                 
  2.588   2.633   2.657   2.658   2.707   2.774   2.778   2.787
 75 B1   96 A1   44 B2   76 B1   97 A1   77 B1   98 A1   33 A2                 
  2.827   2.828   2.859   2.873   2.945   2.956   3.011   3.050
 78 B1   99 A1   79 B1   45 B2  100 A1   80 B1  101 A1  102 A1                 
  3.113   3.140   3.204   3.269   3.284   3.313   3.459   3.618
103 A1   81 B1  104 A1   82 B1   83 B1  105 A1  106 A1  107 A1                 
  3.640   3.678   3.684   3.719   3.749   3.781   3.796   3.820
 84 B1   34 A2   46 B2   85 B1  108 A1   86 B1   47 B2   87 B1                 
  3.841   3.870   3.987   4.021   4.214   4.249   4.443   4.768
109 A1  110 A1   88 B1   35 A2  111 A1   89 B1  112 A1  113 A1                 
 
 Beta MOs, Restricted
 -- Occupied --                  
-20.598 -20.598 -15.850 -15.608 -11.331 -11.295 -11.283 -11.283
  1 B1    1 A1    2 A1    3 A1    4 A1    5 A1    2 B1    6 A1                 
-11.261 -11.261  -1.600  -1.394  -1.262  -1.174  -1.064  -1.045
  3 B1    7 A1    8 A1    4 B1    9 A1   10 A1   11 A1    5 B1                 
 -0.940  -0.868  -0.824  -0.771  -0.737  -0.731  -0.710  -0.709
 12 A1    6 B1   13 A1   14 A1    7 B1   15 A1    8 B1    1 B2                 
 -0.642  -0.629  -0.613  -0.588  -0.562  -0.521  -0.484  -0.482
 16 A1    9 B1   10 B1   17 A1    2 B2   11 B1   18 A1   12 B1                 
 -0.477  -0.446  -0.367  -0.322
  3 B2    1 A2    2 A2    4 B2                                                 
 -- Virtual --                   
  0.020   0.033   0.043   0.054   0.056   0.064   0.085   0.089
 19 A1   13 B1   20 A1    5 B2   14 B1   21 A1   15 B1    3 A2                 
  0.100   0.110   0.119   0.126   0.129   0.134   0.137   0.150
 22 A1    6 B2   23 A1   24 A1   16 B1    4 A2    7 B2   25 A1                 
  0.150   0.151   0.163   0.164   0.172   0.174   0.178   0.188
  8 B2   17 B1   18 B1   26 A1   27 A1   19 B1   28 A1    5 A2                 
  0.190   0.195   0.200   0.207   0.209   0.213   0.229   0.239
  9 B2   10 B2   20 B1   29 A1   11 B2   21 B1   22 B1   30 A1                 
  0.260   0.261   0.274   0.276   0.289   0.299   0.305   0.307
 31 A1   23 B1   12 B2   32 A1   33 A1    6 A2   34 A1   24 B1                 
  0.321   0.333   0.343   0.344   0.354   0.361   0.364   0.371
 35 A1   13 B2   36 A1   25 B1   26 B1   14 B2   37 A1    7 A2                 
  0.372   0.382   0.389   0.393   0.396   0.401   0.406   0.416
 27 B1   38 A1   28 B1   39 A1   15 B2   40 A1   29 B1   41 A1                 
  0.420   0.430   0.433   0.440   0.462   0.476   0.489   0.493
  8 A2   30 B1   42 A1   31 B1   43 A1   32 B1   44 A1    9 A2                 
  0.504   0.507   0.508   0.523   0.527   0.560   0.572   0.573
 45 A1   16 B2   33 B1   17 B2   46 A1   47 A1   34 B1   10 A2                 
  0.585   0.591   0.593   0.603   0.621   0.624   0.639   0.646
 48 A1   35 B1   18 B2   49 A1   50 A1   36 B1   37 B1   19 B2                 
  0.653   0.662   0.668   0.684   0.687   0.690   0.690   0.693
 51 A1   38 B1   52 A1   11 A2   20 B2   53 A1   39 B1   54 A1                 
  0.717   0.725   0.737   0.740   0.752   0.763   0.767   0.773
 40 B1   41 B1   12 A2   55 A1   56 A1   42 B1   21 B2   43 B1                 
  0.787   0.813   0.839   0.844   0.861   0.877   0.883   0.891
 57 A1   22 B2   44 B1   45 B1   58 A1   46 B1   23 B2   59 A1                 
  0.891   0.893   0.906   0.922   0.935   0.936   0.943   0.946
 24 B2   13 A2   14 A2   60 A1   25 B2   47 B1   15 A2   26 B2                 
  0.947   0.980   0.998   1.002   1.012   1.013   1.022   1.058
 61 A1   62 A1   63 A1   48 B1   16 A2   64 A1   49 B1   65 A1                 
  1.075   1.079   1.114   1.133   1.133   1.158   1.186   1.231
 27 B2   17 A2   66 A1   18 A2   50 B1   67 A1   28 B2   51 B1                 
  1.249   1.257   1.275   1.276   1.294   1.300   1.309   1.340
 19 A2   68 A1   20 A2   52 B1   69 A1   29 B2   30 B2   53 B1                 
  1.358   1.383   1.392   1.437   1.452   1.475   1.485   1.493
 70 A1   21 A2   71 A1   54 B1   55 B1   31 B2   32 B2   22 A2                 
  1.507   1.509   1.540   1.549   1.571   1.583   1.617   1.621
 56 B1   72 A1   73 A1   74 A1   75 A1   57 B1   33 B2   58 B1                 
  1.629   1.638   1.644   1.649   1.651   1.682   1.684   1.698
 59 B1   76 A1   60 B1   77 A1   34 B2   23 A2   61 B1   24 A2                 
  1.714   1.718   1.729   1.741   1.759   1.770   1.807   1.863
 35 B2   36 B2   78 A1   62 B1   79 A1   80 A1   63 B1   37 B2                 
  1.866   1.882   1.884   1.889   1.895   1.947   1.961   1.975
 25 A2   64 B1   81 A1   38 B2   82 A1   65 B1   83 A1   39 B2                 
  1.978   1.991   2.002   2.015   2.060   2.107   2.116   2.119
 66 B1   40 B2   26 A2   84 A1   67 B1   68 B1   85 A1   27 A2                 
  2.125   2.191   2.192   2.193   2.211   2.215   2.239   2.251
 86 A1   87 A1   41 B2   69 B1   28 A2   88 A1   70 B1   42 B2                 
  2.253   2.259   2.285   2.294   2.337   2.349   2.352   2.378
 89 A1   29 A2   71 B1   90 A1   91 A1   72 B1   30 A2   73 B1                 
  2.410   2.413   2.447   2.459   2.485   2.497   2.546   2.582
 92 A1   74 B1   93 A1   94 A1   31 A2   43 B2   95 A1   32 A2                 
  2.588   2.633   2.657   2.658   2.707   2.774   2.778   2.787
 75 B1   96 A1   44 B2   76 B1   97 A1   77 B1   98 A1   33 A2                 
  2.827   2.828   2.859   2.873   2.945   2.956   3.011   3.050
 78 B1   99 A1   79 B1   45 B2  100 A1   80 B1  101 A1  102 A1                 
  3.113   3.140   3.204   3.269   3.284   3.313   3.459   3.618
103 A1   81 B1  104 A1   82 B1   83 B1  105 A1  106 A1  107 A1                 
  3.640   3.678   3.684   3.719   3.749   3.781   3.796   3.820
 84 B1   34 A2   46 B2   85 B1  108 A1   86 B1   47 B2   87 B1                 
  3.841   3.870   3.987   4.021   4.214   4.249   4.443   4.768
109 A1  110 A1   88 B1   35 A2  111 A1   89 B1  112 A1  113 A1                 
 --------------------------------------------------------------
 
          Ground-State Mulliken Net Atomic Charges

     Atom                 Charge (a.u.)
  ----------------------------------------
      1 C                     1.389362
      2 C                     0.272573
      3 C                     0.733923
      4 C                     0.248121
      5 C                     0.733920
      6 C                     0.272575
      7 H                    -0.453478
      8 H                    -0.567421
      9 H                    -0.567421
     10 H                    -0.453478
     11 N                    -0.337685
     12 N                     0.467780
     13 O                    -0.821842
     14 O                    -0.821842
     15 H                    -0.047544
     16 H                    -0.047544
  ----------------------------------------
  Sum of atomic charges =     0.000000

 -----------------------------------------------------------------
                    Cartesian Multipole Moments
 -----------------------------------------------------------------
    Charge (ESU x 10^10)
                -0.0000
    Dipole Moment (Debye)
         X      -0.0000      Y      -0.0000      Z      -7.5052
       Tot       7.5052
    Quadrupole Moments (Debye-Ang)
        XX     -52.6890     XY      -0.0000     YY     -61.8856
        XZ      -0.0000     YZ      -0.0000     ZZ     -58.1918
    Octopole Moments (Debye-Ang^2)
       XXX       0.0000    XXY       0.0000    XYY      -0.0000
       YYY      -0.0000    XXZ     -16.0597    XYZ       0.0000
       YYZ      14.2005    XZZ      -0.0000    YZZ       0.0000
       ZZZ    -105.4705
    Hexadecapole Moments (Debye-Ang^3)
      XXXX    -361.0475   XXXY      -0.0000   XXYY     -85.6117
      XYYY      -0.0000   YYYY     -67.0975   XXXZ       0.0000
      XXYZ       0.0000   XYYZ      -0.0000   YYYZ      -0.0000
      XXZZ    -299.5401   XYZZ      -0.0000   YYZZ    -284.0806
      XZZZ      -0.0000   YZZZ      -0.0000   ZZZZ   -1394.6853
 -----------------------------------------------------------------
Archival summary:
1\1\Knecht16\SP\HF\BasisUnspecified\2266\mscheure\ThuApr212:48:402020ThuApr212:48:402020\0\\#,HF,BasisUnspecified,\\0,1\N\O,1,1.22241\O,1,1.22241,2,124.967\C,1,1.46955,2,117.517,3,-180,0\C,4,1.40115,1,119.492,2,-180,0\H,5,1.09125,4,119.549,1,-0,0\C,5,1.39553,4,119.436,1,-180,0\H,7,1.09492,5,119.679,4,-180,0\C,4,1.40115,1,119.492,2,-0,0\H,9,1.09125,4,119.549,1,-0,0\C,9,1.39553,4,119.436,1,-180,0\H,11,1.09492,9,119.679,4,-180,0\C,7,1.417,5,120.77,4,-0,0\N,13,1.37289,7,120.714,5,-180,0\H,14,1.00812,13,120.836,7,-180,0\H,14,1.00812,13,120.836,7,-0,0\\HF=-489.277785\\@

 Total job time:  1945.53s(wall), 28050.85s(cpu) 
 Thu Apr  2 12:48:40 2020

        *************************************************************
        *                                                           *
        *  Thank you very much for using Q-Chem.  Have a nice day.  *
        *                                                           *
        *************************************************************


