                  Welcome to Q-Chem
     A Quantum Leap Into The Future Of Chemistry


 Q-Chem 5.3 (devel), Q-Chem, Inc., Pleasanton, CA (2020)

 Yihan Shao,  Zhengting Gan,  E. Epifanovsky,  A. T. B. Gilbert,  M. Wormit,  
 J. Kussmann,  A. W. Lange,  A. Behn,  Jia Deng,  Xintian Feng,  D. Ghosh,  
 M. Goldey,  P. R. Horn,  L. D. Jacobson,  I. Kaliman,  T. Kus,  A. Landau,  
 Jie Liu,  E. I. Proynov,  R. M. Richard,  R. P. Steele,  E. J. Sundstrom,  
 H. L. Woodcock III,  P. M. Zimmerman,  D. Zuev,  B. Alam,  B. Albrecht,  
 E. Alguire,  S. A. Baeppler,  D. Barton,  Z. Benda,  Y. A. Bernard,  
 E. J. Berquist,  K. B. Bravaya,  H. Burton,  K. Carter-Fenk,  D. Casanova,  
 Chun-Min Chang,  Yunqing Chen,  A. Chien,  K. D. Closser,  M. P. Coons,  
 S. Coriani,  S. Dasgupta,  A. L. Dempwolff,  M. Diedenhofen,  Hainam Do,  
 R. G. Edgar,  Po-Tung Fang,  S. Faraji,  S. Fatehi,  Qingguo Feng,  
 J. Fosso-Tande,  J. Gayvert,  Qinghui Ge,  A. Ghysels,  G. Gidofalvi,  
 J. Gomes,  J. Gonthier,  A. Gunina,  D. Hait,  M. W. D. Hanson-Heine,  
 P. H. P. Harbach,  A. W. Hauser,  M. F. Herbst,  J. E. Herr,  
 E. G. Hohenstein,  Z. C. Holden,  Kerwin Hui,  B. C. Huynh,  T.-C. Jagau,  
 Hyunjun Ji,  B. Kaduk,  K. Khistyaev,  Jaehoon Kim,  P. Klunzinger,  K. Koh,  
 D. Kosenkov,  L. Koulias,  T. Kowalczyk,  C. M. Krauter,  A. Kunitsa,  
 Ka Un Lao,  A. Laurent,  K. V. Lawler,  Joonho Lee,  D. Lefrancois,  
 S. Lehtola,  D. S. Levine,  Yi-Pei Li,  You-Sheng Lin,  Fenglai Liu,  
 Kuan-Yu Liu,  E. Livshits,  M. Loipersberger,  A. Luenser,  P. Manohar,  
 E. Mansoor,  S. F. Manzer,  Shan-Ping Mao,  Yuezhi Mao,  N. Mardirossian,  
 A. V. Marenich,  T. Markovich,  L. A. Martinez-Martinez,  S. A. Maurer,  
 N. J. Mayhall,  S. C. McKenzie,  J.-M. Mewes,  P. Morgante,  A. F. Morrison,  
 J. W. Mullinax,  K. Nanda,  T. S. Nguyen-Beck,  R. Olivares-Amaya,  
 J. A. Parkhill,  S. K. Paul,  F. Pavosevic,  Zheng Pei,  T. M. Perrine,  
 F. Plasser,  P. Pokhilko,  S. Prager,  A. Prociuk,  E. Ramos,  B. Rana,  
 D. R. Rehn,  F. Rob,  M. Scheurer,  M. Schneider,  N. Sergueev,  
 S. M. Sharada,  S. Sharma,  D. W. Small,  T. Stauch,  C. J. Stein,  
 T. Stein,  Yu-Chuan Su,  S. P. Veccham,  Zhen Tao,  A. J. W. Thom,  
 A. Tkatchenko,  T. Tsuchimochi,  N. M. Tubman,  L. Vogt,  M. L. Vidal,  
 O. Vydrov,  M. A. Watson,  J. Wenzel,  M. de Wergifosse,  T. A. Wesolowski,  
 A. White,  J. Witte,  A. Yamada,  Jun Yang,  K. Yao,  S. Yeganeh,  
 S. R. Yost,  Zhi-Qiang You,  A. Zech,  Igor Ying Zhang,  Xing Zhang,  
 Yan Zhao,  Ying Zhu,  B. R. Brooks,  G. K. L. Chan,  C. J. Cramer,  
 M. S. Gordon,  W. J. Hehre,  A. Klamt,  M. W. Schmidt,  C. D. Sherrill,  
 D. G. Truhlar,  A. Aspuru-Guzik,  R. Baer,  A. T. Bell,  N. A. Besley,  
 Jeng-Da Chai,  A. E. DePrince, III,  R. A. DiStasio Jr.,  A. Dreuw,  
 B. D. Dunietz,  T. R. Furlani,  Chao-Ping Hsu,  Yousung Jung,  Jing Kong,  
 D. S. Lambrecht,  WanZhen Liang,  C. Ochsenfeld,  V. A. Rassolov,  
 L. V. Slipchenko,  J. E. Subotnik,  T. Van Voorhis,  J. M. Herbert,  
 A. I. Krylov,  P. M. W. Gill,  M. Head-Gordon

 Contributors to earlier versions of Q-Chem not listed above: 
 R. D. Adamson,  B. Austin,  J. Baker,  G. J. O. Beran,  K. Brandhorst,  
 S. T. Brown,  E. F. C. Byrd,  A. K. Chakraborty,  C.-L. Cheng,  
 Siu Hung Chien,  D. M. Chipman,  D. L. Crittenden,  H. Dachsel,  
 R. J. Doerksen,  A. D. Dutoi,  L. Fusti-Molnar,  W. A. Goddard III,  
 A. Golubeva-Zadorozhnaya,  S. R. Gwaltney,  G. Hawkins,  A. Heyden,  
 S. Hirata,  G. Kedziora,  F. J. Keil,  C. Kelley,  Jihan Kim,  R. A. King,  
 R. Z. Khaliullin,  P. P. Korambath,  W. Kurlancheek,  A. M. Lee,  M. S. Lee,  
 S. V. Levchenko,  Ching Yeh Lin,  D. Liotard,  R. C. Lochan,  I. Lotan,  
 P. E. Maslen,  N. Nair,  D. P. O'Neill,  D. Neuhauser,  E. Neuscamman,  
 C. M. Oana,  R. Olson,  B. Peters,  R. Peverati,  P. A. Pieniazek,  
 Y. M. Rhee,  J. Ritchie,  M. A. Rohrdanz,  E. Rosta,  N. J. Russ,  
 H. F. Schaefer III,  N. E. Schultz,  N. Shenvi,  A. C. Simmonett,  A. Sodt,  
 D. Stuck,  K. S. Thanthiriwatte,  V. Vanovschi,  Tao Wang,  A. Warshel,  
 C. F. Williams,  Q. Wu,  X. Xu,  W. Zhang

 Please cite Q-Chem as follows:
 Y. Shao et al., Mol. Phys. 113, 184-215 (2015)
 DOI: 10.1080/00268976.2014.952696

 Q-Chem 5.3.0 for Intel X86 EM64T Linux

 Parts of Q-Chem use Armadillo 9.800.1 (Horizon Scraper).
 http://arma.sourceforge.net/

 Q-Chem begins on Sat Mar 14 11:07:52 2020  

Host: 
0

     Scratch files written to /lscratch/mscheure/pna_eompol4_342879.Meister/qchem20474//
Processing $rem in /export/home/mscheure/data/qchem_ccman2_pe/qchem/config/preferences:
Processing $rem in /export/home/mscheure/.qchemrc:
Core orbitals will be frozen

Checking the input file for inconsistencies... 	...done.

--------------------------------------------------------------
User input:
--------------------------------------------------------------
$molecule
 0 1
C	0.0000000000	0.0000000000	0.7067572030
C	1.2195927633	0.0000000000	0.0169722341
C	1.2182354930	0.0000000000	-1.3785576094
C	0.0000000000	0.0000000000	-2.1022984644
C	-1.2182354930	0.0000000000	-1.3785576094
C	-1.2195927633	0.0000000000	0.0169722341
H	2.1553754221	0.0000000000	0.5783441717
H	2.1689860113	0.0000000000	-1.9216160742
H	-2.1689860113	0.0000000000	-1.9216160742
H	-2.1553754221	0.0000000000	0.5783441717
N	0.0000000000	0.0000000000	-3.4751838553
N	0.0000000000	0.0000000000	2.1763098305
O	-1.0841264669	0.0000000000	2.7410708406
O	1.0841264669	0.0000000000	2.7410708406
H	-0.8656098383	0.0000000000	-3.9919253642
H	0.8656098383	0.0000000000	-3.9919253642
$end

$rem
   METHOD            ccsd
   BASIS             aug-cc-pvdz
   CC_REF_PROP       true
   CC_EOM_PROP       true
   CC_POL            4 !  EV
   CC_FULLRESPONSE   false ! Kaushik
   ee_singlets 	    [2,0,0,0]
   EOM_POL           4 ! EV
   mem_total 350000
   threads 12
   symmetry         false
$end
--------------------------------------------------------------
 ----------------------------------------------------------------
             Standard Nuclear Orientation (Angstroms)
    I     Atom           X                Y                Z
 ----------------------------------------------------------------
    1      C       0.0000000000     0.0000000000     0.7153356937
    2      C       1.2195927633     0.0000000000     0.0255507248
    3      C       1.2182354930     0.0000000000    -1.3699791187
    4      C       0.0000000000     0.0000000000    -2.0937199737
    5      C      -1.2182354930     0.0000000000    -1.3699791187
    6      C      -1.2195927633     0.0000000000     0.0255507248
    7      H       2.1553754221     0.0000000000     0.5869226624
    8      H       2.1689860113     0.0000000000    -1.9130375835
    9      H      -2.1689860113     0.0000000000    -1.9130375835
   10      H      -2.1553754221     0.0000000000     0.5869226624
   11      N       0.0000000000     0.0000000000    -3.4666053646
   12      N       0.0000000000     0.0000000000     2.1848883212
   13      O      -1.0841264669     0.0000000000     2.7496493313
   14      O       1.0841264669     0.0000000000     2.7496493313
   15      H      -0.8656098383     0.0000000000    -3.9833468735
   16      H       0.8656098383     0.0000000000    -3.9833468735
 ----------------------------------------------------------------
 Molecular Point Group                 C2v   NOp =  4
 Largest Abelian Subgroup              C2v   NOp =  4
 Nuclear Repulsion Energy =         493.65919820 hartrees
 There are       36 alpha and       36 beta electrons
 Requested basis set is aug-cc-pVDZ
 There are 120 shells and 284 basis functions
 Total memory of 350000 MB is distributed as follows: 
   MEM_STATIC is set to 192 MB
   QALLOC/CCMAN JOB total memory use is  349808 MB
 Warning: actual memory use might exceed 350000 MB

 Total QAlloc Memory Limit 350000 MB
 Mega-Array Size       188 MB
 MEM_STATIC part       192 MB
 A cutoff of  1.0D-14 yielded   7060 shell pairs
 There are     39640 function pairs (     45441 Cartesian)
 Smallest overlap matrix eigenvalue = 1.97E-06

 Scale SEOQF with 1.000000e-01/1.000000e-01/1.000000e-01

 Standard Electronic Orientation quadrupole field applied
 Nucleus-field energy     =    -0.0000000327 hartrees
 Guess from superposition of atomic densities
 Warning:  Energy on first SCF cycle will be non-variational
 SAD guess density has 72.000000 electrons

 -----------------------------------------------------------------------
  General SCF calculation program by
  Eric Jon Sundstrom, Paul Horn, Yuezhi Mao, Dmitri Zuev, Alec White,
  David Stuck, Shaama M.S., Shane Yost, Joonho Lee, David Small,
  Daniel Levine, Susi Lehtola, Hugh Burton, Evgeny Epifanovsky,
  Bang C. Huynh
 -----------------------------------------------------------------------
 Hartree-Fock
 using 12 threads for integral computing
 -------------------------------------------------------
 OpenMP Integral computing Module                
 Release: version 2.0, May 2017, Q-Chem Inc. Pleasanton 
 -------------------------------------------------------
 A restricted SCF calculation will be
 performed using DIIS
 SCF converges when DIIS error is below 1.0e-08
 ---------------------------------------
  Cycle       Energy         DIIS error
 ---------------------------------------
    1    -493.0966572888      4.03e-02  
    2    -489.0251016749      5.17e-03  
    3    -489.1607661214      4.00e-03  
    4    -489.2732013011      5.15e-04  
    5    -489.2771997193      1.89e-04  
    6    -489.2776797096      6.02e-05  
    7    -489.2777675274      1.90e-05  
    8    -489.2777825687      8.69e-06  
    9    -489.2777846929      2.88e-06  
   10    -489.2777851009      1.15e-06  
   11    -489.2777851810      6.38e-07  
   12    -489.2777852015      1.81e-07  
   13    -489.2777852035      6.88e-08  
   14    -489.2777852036      2.62e-08  
   15    -489.2777852037      7.55e-09  Convergence criterion met
 ---------------------------------------
 SCF time:   CPU 589.97s  wall 54.00s 
 SCF   energy in the final basis set =     -489.2777852037
 Total energy in the final basis set =     -489.2777852037


 ------------------------------------------------------------------------------

   CCMAN2: suite of methods based on coupled cluster
           and equation of motion theories.

   Components:
   * libvmm-1.3-trunk
     by Evgeny Epifanovsky, Ilya Kaliman.
   * libtensor-2.5-trunk
     by Evgeny Epifanovsky, Michael Wormit, Dmitry Zuev, Sam Manzer, 
        Ilya Kaliman.
   * libcc-2.5-trunk
     by Evgeny Epifanovsky, Arik Landau, Tomasz Kus, Kirill Khistyaev, 
        Dmitry Zuev, Prashant Manohar, Xintian Feng, Anna Krylov, 
        Matthew Goldey, Alec White, Thomas Jagau, Kaushik Nanda, 
        Anastasia Gunina, Alexander Kunitsa, Joonho Lee.

   CCMAN original authors:
   Anna I. Krylov, C. David Sherrill, Steven R. Gwaltney,
   Edward F. C. Byrd (2000)
   Sergey V. Levchenko, Lyudmila V. Slipchenko, Tao Wang,
   Ana-Maria C. Cristian (2003)
   Piotr A. Pieniazek, C. Melania Oana, Evgeny Epifanovsky (2007)
   Prashant Manohar (2009)

 ------------------------------------------------------------------------------


 Allocating and initializing 349808MB of RAM (this may take a while)...
 Calculation will run on 12 cores.

 
 Alpha MOs, Restricted
 -- Occupied --                  
-20.598 -20.598 -15.850 -15.608 -11.331 -11.295 -11.283 -11.283
  1 B1    1 A1    2 A1    3 A1    4 A1    5 A1    2 B1    6 A1                 
-11.261 -11.261  -1.600  -1.394  -1.262  -1.174  -1.064  -1.045
  3 B1    7 A1    8 A1    4 B1    9 A1   10 A1   11 A1    5 B1                 
 -0.940  -0.868  -0.824  -0.771  -0.737  -0.731  -0.710  -0.709
 12 A1    6 B1   13 A1   14 A1    7 B1   15 A1    8 B1    1 B2                 
 -0.642  -0.629  -0.613  -0.588  -0.562  -0.521  -0.484  -0.482
 16 A1    9 B1   10 B1   17 A1    2 B2   11 B1   18 A1   12 B1                 
 -0.477  -0.446  -0.367  -0.322
  3 B2    1 A2    2 A2    4 B2                                                 
 -- Virtual --                   
  0.020   0.033   0.043   0.054   0.056   0.064   0.085   0.089
 19 A1   13 B1   20 A1    5 B2   14 B1   21 A1   15 B1    3 A2                 
  0.100   0.110   0.119   0.126   0.129   0.134   0.137   0.150
 22 A1    6 B2   23 A1   24 A1   16 B1    4 A2    7 B2   25 A1                 
  0.150   0.151   0.163   0.164   0.172   0.174   0.178   0.188
  8 B2   17 B1   18 B1   26 A1   27 A1   19 B1   28 A1    5 A2                 
  0.190   0.195   0.200   0.207   0.209   0.213   0.229   0.239
  9 B2   10 B2   20 B1   29 A1   11 B2   21 B1   22 B1   30 A1                 
  0.260   0.261   0.274   0.276   0.289   0.299   0.305   0.307
 31 A1   23 B1   12 B2   32 A1   33 A1    6 A2   34 A1   24 B1                 
  0.321   0.333   0.343   0.344   0.354   0.361   0.364   0.371
 35 A1   13 B2   36 A1   25 B1   26 B1   14 B2   37 A1    7 A2                 
  0.372   0.382   0.389   0.393   0.396   0.401   0.406   0.416
 27 B1   38 A1   28 B1   39 A1   15 B2   40 A1   29 B1   41 A1                 
  0.420   0.430   0.433   0.440   0.462   0.476   0.489   0.493
  8 A2   30 B1   42 A1   31 B1   43 A1   32 B1   44 A1    9 A2                 
  0.504   0.507   0.508   0.523   0.527   0.560   0.572   0.573
 45 A1   16 B2   33 B1   17 B2   46 A1   47 A1   34 B1   10 A2                 
  0.585   0.591   0.593   0.603   0.621   0.624   0.639   0.646
 48 A1   35 B1   18 B2   49 A1   50 A1   36 B1   37 B1   19 B2                 
  0.653   0.662   0.668   0.684   0.687   0.690   0.690   0.693
 51 A1   38 B1   52 A1   11 A2   20 B2   53 A1   39 B1   54 A1                 
  0.717   0.725   0.737   0.740   0.752   0.763   0.767   0.773
 40 B1   41 B1   12 A2   55 A1   56 A1   42 B1   21 B2   43 B1                 
  0.787   0.813   0.839   0.844   0.861   0.877   0.883   0.891
 57 A1   22 B2   44 B1   45 B1   58 A1   46 B1   23 B2   59 A1                 
  0.891   0.893   0.906   0.922   0.935   0.936   0.943   0.946
 24 B2   13 A2   14 A2   60 A1   25 B2   47 B1   15 A2   26 B2                 
  0.947   0.980   0.998   1.002   1.012   1.013   1.022   1.058
 61 A1   62 A1   63 A1   48 B1   16 A2   64 A1   49 B1   65 A1                 
  1.075   1.079   1.114   1.133   1.133   1.158   1.186   1.231
 27 B2   17 A2   66 A1   18 A2   50 B1   67 A1   28 B2   51 B1                 
  1.249   1.257   1.275   1.276   1.294   1.300   1.309   1.340
 19 A2   68 A1   20 A2   52 B1   69 A1   29 B2   30 B2   53 B1                 
  1.358   1.383   1.392   1.437   1.452   1.475   1.485   1.493
 70 A1   21 A2   71 A1   54 B1   55 B1   31 B2   32 B2   22 A2                 
  1.507   1.509   1.540   1.549   1.571   1.583   1.617   1.621
 56 B1   72 A1   73 A1   74 A1   75 A1   57 B1   33 B2   58 B1                 
  1.629   1.638   1.644   1.649   1.651   1.682   1.684   1.698
 59 B1   76 A1   60 B1   77 A1   34 B2   23 A2   61 B1   24 A2                 
  1.714   1.718   1.729   1.741   1.759   1.770   1.807   1.863
 35 B2   36 B2   78 A1   62 B1   79 A1   80 A1   63 B1   37 B2                 
  1.866   1.882   1.884   1.889   1.895   1.947   1.961   1.975
 25 A2   64 B1   81 A1   38 B2   82 A1   65 B1   83 A1   39 B2                 
  1.978   1.991   2.002   2.015   2.060   2.107   2.116   2.119
 66 B1   40 B2   26 A2   84 A1   67 B1   68 B1   85 A1   27 A2                 
  2.125   2.191   2.192   2.193   2.211   2.215   2.239   2.251
 86 A1   87 A1   41 B2   69 B1   28 A2   88 A1   70 B1   42 B2                 
  2.253   2.259   2.285   2.294   2.337   2.349   2.352   2.378
 89 A1   29 A2   71 B1   90 A1   91 A1   72 B1   30 A2   73 B1                 
  2.410   2.413   2.447   2.459   2.485   2.497   2.546   2.582
 92 A1   74 B1   93 A1   94 A1   31 A2   43 B2   95 A1   32 A2                 
  2.588   2.633   2.657   2.658   2.707   2.774   2.778   2.787
 75 B1   96 A1   44 B2   76 B1   97 A1   77 B1   98 A1   33 A2                 
  2.827   2.828   2.859   2.873   2.945   2.956   3.011   3.050
 78 B1   99 A1   79 B1   45 B2  100 A1   80 B1  101 A1  102 A1                 
  3.113   3.140   3.204   3.269   3.284   3.313   3.459   3.618
103 A1   81 B1  104 A1   82 B1   83 B1  105 A1  106 A1  107 A1                 
  3.640   3.678   3.684   3.719   3.749   3.781   3.796   3.820
 84 B1   34 A2   46 B2   85 B1  108 A1   86 B1   47 B2   87 B1                 
  3.841   3.870   3.987   4.021   4.214   4.249   4.443   4.768
109 A1  110 A1   88 B1   35 A2  111 A1   89 B1  112 A1  113 A1                 
 
 Beta MOs, Restricted
 -- Occupied --                  
-20.598 -20.598 -15.850 -15.608 -11.331 -11.295 -11.283 -11.283
  1 B1    1 A1    2 A1    3 A1    4 A1    5 A1    2 B1    6 A1                 
-11.261 -11.261  -1.600  -1.394  -1.262  -1.174  -1.064  -1.045
  3 B1    7 A1    8 A1    4 B1    9 A1   10 A1   11 A1    5 B1                 
 -0.940  -0.868  -0.824  -0.771  -0.737  -0.731  -0.710  -0.709
 12 A1    6 B1   13 A1   14 A1    7 B1   15 A1    8 B1    1 B2                 
 -0.642  -0.629  -0.613  -0.588  -0.562  -0.521  -0.484  -0.482
 16 A1    9 B1   10 B1   17 A1    2 B2   11 B1   18 A1   12 B1                 
 -0.477  -0.446  -0.367  -0.322
  3 B2    1 A2    2 A2    4 B2                                                 
 -- Virtual --                   
  0.020   0.033   0.043   0.054   0.056   0.064   0.085   0.089
 19 A1   13 B1   20 A1    5 B2   14 B1   21 A1   15 B1    3 A2                 
  0.100   0.110   0.119   0.126   0.129   0.134   0.137   0.150
 22 A1    6 B2   23 A1   24 A1   16 B1    4 A2    7 B2   25 A1                 
  0.150   0.151   0.163   0.164   0.172   0.174   0.178   0.188
  8 B2   17 B1   18 B1   26 A1   27 A1   19 B1   28 A1    5 A2                 
  0.190   0.195   0.200   0.207   0.209   0.213   0.229   0.239
  9 B2   10 B2   20 B1   29 A1   11 B2   21 B1   22 B1   30 A1                 
  0.260   0.261   0.274   0.276   0.289   0.299   0.305   0.307
 31 A1   23 B1   12 B2   32 A1   33 A1    6 A2   34 A1   24 B1                 
  0.321   0.333   0.343   0.344   0.354   0.361   0.364   0.371
 35 A1   13 B2   36 A1   25 B1   26 B1   14 B2   37 A1    7 A2                 
  0.372   0.382   0.389   0.393   0.396   0.401   0.406   0.416
 27 B1   38 A1   28 B1   39 A1   15 B2   40 A1   29 B1   41 A1                 
  0.420   0.430   0.433   0.440   0.462   0.476   0.489   0.493
  8 A2   30 B1   42 A1   31 B1   43 A1   32 B1   44 A1    9 A2                 
  0.504   0.507   0.508   0.523   0.527   0.560   0.572   0.573
 45 A1   16 B2   33 B1   17 B2   46 A1   47 A1   34 B1   10 A2                 
  0.585   0.591   0.593   0.603   0.621   0.624   0.639   0.646
 48 A1   35 B1   18 B2   49 A1   50 A1   36 B1   37 B1   19 B2                 
  0.653   0.662   0.668   0.684   0.687   0.690   0.690   0.693
 51 A1   38 B1   52 A1   11 A2   20 B2   53 A1   39 B1   54 A1                 
  0.717   0.725   0.737   0.740   0.752   0.763   0.767   0.773
 40 B1   41 B1   12 A2   55 A1   56 A1   42 B1   21 B2   43 B1                 
  0.787   0.813   0.839   0.844   0.861   0.877   0.883   0.891
 57 A1   22 B2   44 B1   45 B1   58 A1   46 B1   23 B2   59 A1                 
  0.891   0.893   0.906   0.922   0.935   0.936   0.943   0.946
 24 B2   13 A2   14 A2   60 A1   25 B2   47 B1   15 A2   26 B2                 
  0.947   0.980   0.998   1.002   1.012   1.013   1.022   1.058
 61 A1   62 A1   63 A1   48 B1   16 A2   64 A1   49 B1   65 A1                 
  1.075   1.079   1.114   1.133   1.133   1.158   1.186   1.231
 27 B2   17 A2   66 A1   18 A2   50 B1   67 A1   28 B2   51 B1                 
  1.249   1.257   1.275   1.276   1.294   1.300   1.309   1.340
 19 A2   68 A1   20 A2   52 B1   69 A1   29 B2   30 B2   53 B1                 
  1.358   1.383   1.392   1.437   1.452   1.475   1.485   1.493
 70 A1   21 A2   71 A1   54 B1   55 B1   31 B2   32 B2   22 A2                 
  1.507   1.509   1.540   1.549   1.571   1.583   1.617   1.621
 56 B1   72 A1   73 A1   74 A1   75 A1   57 B1   33 B2   58 B1                 
  1.629   1.638   1.644   1.649   1.651   1.682   1.684   1.698
 59 B1   76 A1   60 B1   77 A1   34 B2   23 A2   61 B1   24 A2                 
  1.714   1.718   1.729   1.741   1.759   1.770   1.807   1.863
 35 B2   36 B2   78 A1   62 B1   79 A1   80 A1   63 B1   37 B2                 
  1.866   1.882   1.884   1.889   1.895   1.947   1.961   1.975
 25 A2   64 B1   81 A1   38 B2   82 A1   65 B1   83 A1   39 B2                 
  1.978   1.991   2.002   2.015   2.060   2.107   2.116   2.119
 66 B1   40 B2   26 A2   84 A1   67 B1   68 B1   85 A1   27 A2                 
  2.125   2.191   2.192   2.193   2.211   2.215   2.239   2.251
 86 A1   87 A1   41 B2   69 B1   28 A2   88 A1   70 B1   42 B2                 
  2.253   2.259   2.285   2.294   2.337   2.349   2.352   2.378
 89 A1   29 A2   71 B1   90 A1   91 A1   72 B1   30 A2   73 B1                 
  2.410   2.413   2.447   2.459   2.485   2.497   2.546   2.582
 92 A1   74 B1   93 A1   94 A1   31 A2   43 B2   95 A1   32 A2                 
  2.588   2.633   2.657   2.658   2.707   2.774   2.778   2.787
 75 B1   96 A1   44 B2   76 B1   97 A1   77 B1   98 A1   33 A2                 
  2.827   2.828   2.859   2.873   2.945   2.956   3.011   3.050
 78 B1   99 A1   79 B1   45 B2  100 A1   80 B1  101 A1  102 A1                 
  3.113   3.140   3.204   3.269   3.284   3.313   3.459   3.618
103 A1   81 B1  104 A1   82 B1   83 B1  105 A1  106 A1  107 A1                 
  3.640   3.678   3.684   3.719   3.749   3.781   3.796   3.820
 84 B1   34 A2   46 B2   85 B1  108 A1   86 B1   47 B2   87 B1                 
  3.841   3.870   3.987   4.021   4.214   4.249   4.443   4.768
109 A1  110 A1   88 B1   35 A2  111 A1   89 B1  112 A1  113 A1                 

 Occupation and symmetry of molecular orbitals

 Point group: C2v (4 irreducible representations).

                           A1   A2   B1   B2    All 
 ----------------------------------------------------
 All molecular orbitals:
  - Alpha                  113  35   89   47    284 
  - Beta                   113  35   89   47    284 
 ----------------------------------------------------
 Alpha orbitals:
  - Frozen occupied        7    0    3    0     10  
  - Active occupied        11   2    9    4     26  
  - Active virtual         95   33   77   43    248 
  - Frozen virtual         0    0    0    0     0   
 ----------------------------------------------------
 Beta orbitals:
  - Frozen occupied        7    0    3    0     10  
  - Active occupied        11   2    9    4     26  
  - Active virtual         95   33   77   43    248 
  - Frozen virtual         0    0    0    0     0   
 ----------------------------------------------------

 Import integrals:   CPU 0.00 s  wall 0.00 s

 Import integrals:   CPU 584.10 s  wall 59.74 s

 MP2 amplitudes:   CPU 4.78 s  wall 3.88 s

Running a double precision version
           CCSD T amplitudes will be solved using DIIS.

           Start     Size      MaxIter   EConv     TConv     
           3         7         100       1.00e-06  1.00e-04  
 ------------------------------------------------------------------------------
           Energy (a.u.)   Ediff      Tdiff       Comment
 ------------------------------------------------------------------------------
          -490.84186999                           
     1    -490.80412928   3.77e-02   1.18e+00     
     2    -490.86204112   5.79e-02   1.69e-01     
     3    -490.85601453   6.03e-03   7.09e-02     
     4    -490.86223956   6.23e-03   2.95e-02     Switched to DIIS steps.
     5    -490.86434952   2.11e-03   1.48e-02     
     6    -490.86463786   2.88e-04   4.75e-03     
     7    -490.86467465   3.68e-05   2.17e-03     
     8    -490.86466517   9.48e-06   1.13e-03     
     9    -490.86467041   5.24e-06   5.04e-04     
    10    -490.86467196   1.55e-06   2.07e-04     
    11    -490.86467621   4.25e-06   1.46e-04     
    12    -490.86467567   5.37e-07   4.58e-05     
 ------------------------------------------------------------------------------
          -490.86467567                           CCSD T converged.

End of double precision
 SCF energy                 = -489.27778520
 MP2 energy                 = -490.84186999
 CCSD correlation energy    =   -1.58689047
 CCSD total energy          = -490.86467567

 CCSD  T1^2 = 0.0312  T2^2 = 0.5675  Leading amplitudes:

 Amplitude    Orbitals with energies
  0.0452       1 (B2) A                  ->    5 (B2) A                   
              -0.7091                          0.0538                     
  0.0452       1 (B2) B                  ->    5 (B2) B                   
              -0.7091                          0.0538                     
  0.0424       3 (B2) A                  ->    5 (B2) A                   
              -0.4766                          0.0538                     
  0.0424       3 (B2) B                  ->    5 (B2) B                   
              -0.4766                          0.0538                     

 Amplitude    Orbitals with energies
 -0.0627       2 (A2) A      2 (A2) B    ->    3 (A2) A      3 (A2) B     
              -0.3668       -0.3668            0.0891        0.0891       
  0.0627       2 (A2) A      2 (A2) B    ->    3 (A2) B      3 (A2) A     
              -0.3668       -0.3668            0.0891        0.0891       
  0.0627       2 (A2) B      2 (A2) A    ->    3 (A2) A      3 (A2) B     
              -0.3668       -0.3668            0.0891        0.0891       
 -0.0627       2 (A2) B      2 (A2) A    ->    3 (A2) B      3 (A2) A     
              -0.3668       -0.3668            0.0891        0.0891       

 Computing CCSD intermediates for later calculations in double precision
 Finished.

Running a double precision version
           CCSD Lambda amplitudes will be solved using DIIS.
           Start     Size      MaxIter   EConv     LConv     
           3         7         100       1.00e-06  1.00e-04  
 ------------------------------------------------------------------------------
            Enorm      Ldiff       Comment
 ------------------------------------------------------------------------------
     1     8.61e-02   6.03e-02     
     2     2.37e-02   4.50e-03     
     3     1.05e-02   1.87e-03     
     4     4.94e-03   1.20e-03     Switched to DIIS steps.
     5     1.94e-03   7.70e-04     
     6     8.82e-04   3.12e-04     
     7     4.30e-04   8.90e-05     
     8     1.63e-04   2.32e-05     
     9     8.90e-05   2.06e-06     
    10     4.71e-05   6.50e-07     
    11     1.90e-05   8.90e-07     
    12     9.51e-06   5.85e-07     
    13     4.62e-06   6.74e-07     
    14     2.30e-06   2.09e-07     
    15     1.26e-06   7.08e-08     
    16     5.89e-07   8.73e-08     
 ------------------------------------------------------------------------------
                                   CCSD Lambda converged.

 Computing density matrices in double precision...
 Computing density matrices... Done.
 Reference state properties
 Dipole moment (a.u.): 2.668011 (X 0.000000, Y 0.000000, Z -2.668011)
 R-squared (a.u.): 1574.268312 (XX 306.622082, YY 46.012710, ZZ 1221.633519)
 Gauge origin (a.u.): (0.000000, 0.000000, 0.000000)
 Angular momentum (a.u.) against gauge origin: 
 (X 0.000000i, Y 0.000000i, Z 0.000000i)
 Traces of the OPDMs: Tr(AA) 36.000000, Tr(BB) 36.000000
 Density matrix was written to a file for further analysis.
           CCSD Polarizability response will be solved using DIIS.
           Start     Size      MaxIter   EConv     XConv     
           3         7         100       1.00e-06  1.00e-06  
Performing DIIS for the x-component of dZdy
 ------------------------------------------------------------------------------
            Enorm      Xdiff       Comment
 ------------------------------------------------------------------------------
     1     1.98e+00   1.49e+00     
     2     1.32e+00   1.23e+00     
     3     7.30e-01   6.21e-01     
     4     3.41e-01   8.30e-01     Switched to DIIS steps.
     5     1.47e-01   2.69e-01     
     6     4.36e-02   1.50e-01     
     7     2.15e-02   2.04e-02     
     8     8.74e-03   7.67e-03     
     9     3.09e-03   1.70e-03     
    10     1.65e-03   1.12e-04     
    11     8.13e-04   3.84e-05     
    12     3.34e-04   4.73e-05     
    13     1.28e-04   3.98e-05     
    14     6.67e-05   1.09e-05     
    15     3.60e-05   1.39e-05     
    16     1.90e-05   1.82e-05     
    17     9.16e-06   1.09e-05     
    18     3.13e-06   6.43e-06     
    19     1.47e-06   1.32e-06     
    20     7.15e-07   1.60e-07     
 ------------------------------------------------------------------------------
                                   Polarizability X-amplitude response conv
Performing DIIS for the y-component of dZdy
 ------------------------------------------------------------------------------
            Enorm      Xdiff       Comment
 ------------------------------------------------------------------------------
     1     1.25e+00   9.58e-01     
     2     6.70e-01   5.91e-01     
     3     3.53e-01   2.89e-01     
     4     7.34e-02   3.24e-01     Switched to DIIS steps.
     5     3.94e-02   2.46e-02     
     6     1.58e-02   1.49e-02     
     7     7.88e-03   3.26e-03     
     8     4.01e-03   9.86e-04     
     9     2.05e-03   4.85e-04     
    10     1.13e-03   1.67e-04     
    11     5.04e-04   5.71e-05     
    12     1.88e-04   2.89e-06     
    13     6.70e-05   1.63e-05     
    14     2.97e-05   3.18e-06     
    15     1.31e-05   5.11e-06     
    16     5.60e-06   4.29e-06     
    17     2.88e-06   1.79e-06     
    18     1.25e-06   9.01e-07     
    19     6.12e-07   2.34e-07     
 ------------------------------------------------------------------------------
                                   Polarizability X-amplitude response conv
Performing DIIS for the z-component of dZdy
 ------------------------------------------------------------------------------
            Enorm      Xdiff       Comment
 ------------------------------------------------------------------------------
     1     2.60e+00   2.20e+00     
     2     1.99e+00   1.86e+00     
     3     1.26e+00   1.12e+00     
     4     6.25e-01   2.00e+00     Switched to DIIS steps.
     5     2.78e-01   7.04e-01     
     6     9.42e-02   4.45e-01     
     7     4.65e-02   7.22e-02     
     8     1.37e-02   2.57e-02     
     9     6.05e-03   3.82e-03     
    10     2.39e-03   9.28e-04     
    11     8.38e-04   4.78e-04     
    12     3.12e-04   1.76e-05     
    13     1.68e-04   1.41e-05     
    14     8.68e-05   5.02e-05     
    15     4.89e-05   4.53e-05     
    16     2.79e-05   3.15e-05     
    17     1.32e-05   3.06e-05     
    18     6.77e-06   1.46e-05     
    19     3.44e-06   6.61e-06     
    20     1.37e-06   4.14e-06     
    21     6.38e-07   1.10e-06     
    22     2.95e-07   4.09e-07     
 ------------------------------------------------------------------------------
                                   Polarizability X-amplitude response conv

Static polarizability with expectation-value approach using left response vectors

 Polarizability Tensor ALPHA_IJ, I,J=X,Y,Z (a.u.):
 ------------------------------------------------------------------------------
        110.75872750    0.00000000    0.00000000
          0.00000000   58.19698033    0.00000000
          0.00000000    0.00000000  157.68217228
 ------------------------------------------------------------------------------
 Isotropic polarizability: 1/3 * (a_xx + a_yy + a_zz)
 Isotropic polarizability in a.u. = 108.87929337
 Anisotropic polarizability: SQRT(0.5*((a_xx-a_yy)^2 + (a_yy-a_zz)^2 + (a_zz-a_xx)^2))
 Anisotropic polarizability in a.u. = 86.20281421
 ------------------------------------------------------------------------------

 CCSD calculation:   CPU 6254.45 s  wall 630.56 s

        Solving for EOMEE-CCSD A1 singlet states.

Running a double precision version
        EOMEE-CCSD/MP2 right amplitudes will be solved using Davidson.
        Amplitudes will be solved using standard  algorithm.
     Hard-coded thresholds: 
     LinDepThresh=1.00e-15  NormThresh=1.00e-06  ReorthogonThresh=1.00e-02

      Roots     MaxVec    MaxIter   Precond   Conv      Shift    
      2         120       60        1         1.00e-05  0.00e+00  
 ------------------------------------------------------------------------------
      Iter ConvRoots NVecs ResNorm Current eigenvalues (eV)
 ------------------------------------------------------------------------------
      0    0      2     2.50e-01   9.5399   10.4656   
      1    0      4     8.74e-02   6.3822   7.7013   
      2    0      6     8.37e-03   4.8454   6.7997   
      3    0      8     2.17e-03   4.6683   6.6367   
      4    0      10    1.65e-03   4.6356   6.5490   
      5    0      12    9.70e-04   4.6262   6.4652   
      6    0      14    6.64e-04   4.6200   6.3838   
      7    0      16    3.26e-04   4.6192   6.3462   
      8    1      18    1.39e-04   4.6191*  6.3270   
      9    1      19    3.83e-05   4.6190*  6.3203   
      10   1      20    1.24e-05   4.6190*  6.3189   
      11   2      21    6.04e-06   4.6190*  6.3187*  

     Davidson procedure converged

 EOMEE transition 1/A1
 Total energy = -490.69492914 a.u.  Excitation energy = 4.6190 eV.
 R0^2 = 0.0033  R1^2 = 0.9011  R2^2 = 0.0989  Res^2 = 4.23e-06
 Conv-d = yes

 Amplitude    Transitions between orbitals
  0.6409       4 (B2) A                  ->    5 (B2) A                   
  0.6409       4 (B2) B                  ->    5 (B2) B                   
 -0.0970       2 (A2) A                  ->    3 (A2) A                   
 -0.0970       2 (A2) B                  ->    3 (A2) B                   

              Summary of significant orbitals:

               Number  Type             Irrep      Energy
               35      Occ  Alpha       2 (A2)     -0.3668
               36      Occ  Alpha       4 (B2)     -0.3216
               35      Occ  Beta        2 (A2)     -0.3668
               36      Occ  Beta        4 (B2)     -0.3216
               44      Vir  Alpha       3 (A2)      0.0891
               40      Vir  Alpha       5 (B2)      0.0538
               44      Vir  Beta        3 (A2)      0.0891
               40      Vir  Beta        5 (B2)      0.0538


 EOMEE transition 2/A1
 Total energy = -490.63246696 a.u.  Excitation energy = 6.3187 eV.
 R0^2 = 0.0002  R1^2 = 0.9127  R2^2 = 0.0873  Res^2 = 7.84e-06
 Conv-d = yes

 Amplitude    Transitions between orbitals
  0.4925       4 (B2) A                  ->    6 (B2) A                   
  0.4925       4 (B2) B                  ->    6 (B2) B                   
  0.2473       4 (B2) A                  ->    7 (B2) A                   
  0.2473       4 (B2) B                  ->    7 (B2) B                   
  0.1963       4 (B2) A                  ->    9 (B2) A                   
  0.1963       4 (B2) B                  ->    9 (B2) B                   
  0.1608       3 (B2) A                  ->    5 (B2) A                   
  0.1608       3 (B2) B                  ->    5 (B2) B                   
  0.1479       2 (A2) A                  ->    3 (A2) A                   
  0.1479       2 (A2) B                  ->    3 (A2) B                   
 -0.1293       4 (B2) A                  ->    8 (B2) A                   
 -0.1293       4 (B2) B                  ->    8 (B2) B                   
 -0.1145       4 (B2) A                  ->    10 (B2) A                  
 -0.1145       4 (B2) B                  ->    10 (B2) B                  
  0.1070       4 (B2) A                  ->    11 (B2) A                  
  0.1070       4 (B2) B                  ->    11 (B2) B                  

              Summary of significant orbitals:

               Number  Type             Irrep      Energy
               35      Occ  Alpha       2 (A2)     -0.3668
               33      Occ  Alpha       3 (B2)     -0.4766
               36      Occ  Alpha       4 (B2)     -0.3216
               35      Occ  Beta        2 (A2)     -0.3668
               33      Occ  Beta        3 (B2)     -0.4766
               36      Occ  Beta        4 (B2)     -0.3216
               44      Vir  Alpha       3 (A2)      0.0891
               40      Vir  Alpha       5 (B2)      0.0538
               46      Vir  Alpha       6 (B2)      0.1098
               51      Vir  Alpha       7 (B2)      0.1368
               53      Vir  Alpha       8 (B2)      0.1502
               61      Vir  Alpha       9 (B2)      0.1900
               62      Vir  Alpha      10 (B2)      0.1950
               65      Vir  Alpha      11 (B2)      0.2090
               44      Vir  Beta        3 (A2)      0.0891
               40      Vir  Beta        5 (B2)      0.0538
               46      Vir  Beta        6 (B2)      0.1098
               51      Vir  Beta        7 (B2)      0.1368
               53      Vir  Beta        8 (B2)      0.1502
               61      Vir  Beta        9 (B2)      0.1900
               62      Vir  Beta       10 (B2)      0.1950
               65      Vir  Beta       11 (B2)      0.2090


Running a double precision version
      EOM-CCSD/MP2 left amplitudes will be solved using Davidson.
        Amplitudes will be solved using MOM  algorithm.
     Hard-coded thresholds: 
     LinDepThresh=1.00e-15  NormThresh=1.00e-06  ReorthogonThresh=1.00e-02

      Roots     MaxVec    MaxIter   Precond   Conv      Shift    
      2         120       60        1         1.00e-05  0.00e+00  
 ------------------------------------------------------------------------------
      Iter ConvRoots NVecs ResNorm Current eigenvalues (eV)
 ------------------------------------------------------------------------------
      0    0      2     1.10e-02   4.6190   6.3187   
      1    0      4     2.81e-03   4.6189   6.3186   
      2    0      6     1.74e-04   4.6189   6.3186   
      3    0      8     3.57e-05   4.6188   6.3185   
      4    2      10    9.06e-06   4.6188*  6.3185*  

     Davidson procedure converged

 Excited state properties for  EOMEE-CCSD transition 1/A1
 Dipole moment (a.u.): 5.717646 (X 0.000000, Y 0.000000, Z -5.717646)
 R-squared (a.u.): 1574.982392 (XX 307.610568, YY 46.260315, ZZ 1221.111509)
 Gauge origin (a.u.): (0.000000, 0.000000, 0.000000)
 Angular momentum (a.u.) against gauge origin: 
 (X 0.000000i, Y 0.000000i, Z 0.000000i)
 Traces of the OPDMs: Tr(AA) 36.000000, Tr(BB) 36.000000

           EOM Polarizability response will be solved using DIIS.
           Start     Size      MaxIter   EConv     XConv     
           3         7         100       1.00e-06  1.00e-06  
Performing DIIS for the x-component of dLdy
 ------------------------------------------------------------------------------
            Enorm      Xdiff       Comment
 ------------------------------------------------------------------------------
     1     1.85e+00   1.70e+00     
     2     1.23e+00   1.09e+00     
     3     8.25e-01   6.86e-01     
     4     5.00e-01   1.28e+00     Switched to DIIS steps.
     5     3.84e-01   3.33e-01     
     6     2.56e-01   8.37e-01     
     7     2.12e-01   2.30e-01     
     8     1.64e-01   4.17e-01     
     9     1.32e-01   4.93e-01     
    10     1.27e-01   7.28e-02     
    11     1.25e-01   2.19e-01     
    12     1.25e-01   1.06e-01     
    13     1.25e-01   7.07e-02     
    14     1.24e-01   1.95e-01     
    15     1.22e-01   1.86e-01     
    16     1.23e-01   2.84e-01     
    17     1.25e-01   3.56e-01     
    18     1.16e-01   1.72e-01     
    19     1.15e-01   1.62e-01     
    20     1.11e-01   6.51e-01     
    21     9.46e-02   8.61e+00     
    22     7.04e-02   1.70e+01     
    23     5.09e-02   1.15e+01     
    24     3.27e-02   8.63e+00     
    25     1.47e-02   9.45e+00     
    26     9.80e-03   8.16e-01     
    27     7.55e-03   2.49e-01     
    28     5.92e-03   2.79e-01     
    29     4.20e-03   2.64e-01     
    30     2.95e-03   6.34e-03     
    31     1.29e-03   5.15e-01     
    32     7.40e-04   1.36e-01     
    33     4.90e-04   2.66e-02     
    34     3.05e-04   7.67e-03     
    35     1.07e-04   1.76e-02     
    36     6.88e-05   5.13e-03     
    37     5.02e-05   1.11e-03     
    38     3.40e-05   3.74e-03     
    39     2.77e-05   1.65e-03     
    40     2.31e-05   1.22e-03     
    41     1.82e-05   2.30e-03     
    42     1.63e-05   4.39e-04     
    43     1.40e-05   1.26e-03     
    44     1.19e-05   9.67e-04     
    45     1.02e-05   1.07e-03     
    46     9.16e-06   4.34e-04     
    47     6.63e-06   1.85e-03     
    48     4.34e-06   7.49e-04     
    49     2.78e-06   9.88e-04     
    50     2.00e-06   1.87e-04     
    51     1.32e-06   2.12e-04     
    52     9.01e-07   2.07e-04     
    53     4.90e-07   7.88e-05     
    54     2.24e-07   9.37e-05     
    55     1.41e-07   2.36e-05     
    56     7.16e-08   5.05e-06     
    57     3.58e-08   4.35e-06     
    58     2.77e-08   3.24e-06     
    59     2.52e-08   1.54e-06     
    60     2.44e-08   1.04e-07     
 ------------------------------------------------------------------------------
                                   Polarizability tX-amplitude response con
Performing DIIS for the y-component of dLdy
 ------------------------------------------------------------------------------
            Enorm      Xdiff       Comment
 ------------------------------------------------------------------------------
     1     1.66e+00   1.52e+00     
     2     1.33e+00   1.14e+00     
     3     1.11e+00   9.11e-01     
     4     8.62e-01   2.65e+00     Switched to DIIS steps.
     5     6.73e-01   2.27e+00     
     6     5.02e-01   3.61e+00     
     7     3.74e-01   2.79e+00     
     8     2.90e-01   2.44e+00     
     9     1.89e-01   1.78e+00     
    10     1.31e-01   1.27e+00     
    11     7.25e-02   7.97e-01     
    12     4.42e-02   2.69e-01     
    13     2.48e-02   1.79e-01     
    14     1.52e-02   2.62e-02     
    15     1.00e-02   2.50e-02     
    16     7.51e-03   1.49e-02     
    17     6.17e-03   1.99e-02     
    18     5.90e-03   4.96e-03     
    19     5.72e-03   4.12e-03     
    20     5.57e-03   3.01e-03     
    21     5.36e-03   5.53e-03     
    22     5.05e-03   7.89e-03     
    23     4.48e-03   1.64e-02     
    24     3.85e-03   1.95e-02     
    25     3.30e-03   1.45e-02     
    26     2.85e-03   9.16e-03     
    27     2.52e-03   9.35e-04     
    28     2.18e-03   1.06e-05     
    29     1.77e-03   6.65e-03     
    30     1.18e-03   5.57e-03     
    31     6.15e-04   7.84e-03     
    32     3.77e-04   3.00e-03     
    33     2.82e-04   1.35e-03     
    34     2.16e-04   1.26e-03     
    35     1.52e-04   1.44e-03     
    36     1.08e-04   1.11e-03     
    37     6.96e-05   9.54e-04     
    38     5.00e-05   4.46e-04     
    39     3.75e-05   3.31e-04     
    40     3.35e-05   6.96e-05     
    41     3.09e-05   4.02e-05     
    42     2.80e-05   4.53e-05     
    43     2.32e-05   1.67e-05     
    44     1.88e-05   2.48e-05     
    45     1.43e-05   2.08e-05     
    46     1.10e-05   3.13e-05     
    47     8.16e-06   4.63e-05     
    48     5.73e-06   5.23e-05     
    49     4.42e-06   3.09e-05     
    50     3.25e-06   2.84e-05     
    51     2.36e-06   2.49e-05     
    52     1.84e-06   1.19e-05     
    53     1.37e-06   1.27e-05     
    54     1.03e-06   7.71e-06     
    55     8.72e-07   4.83e-06     
    56     7.85e-07   2.57e-06     
    57     7.06e-07   1.87e-07     
 ------------------------------------------------------------------------------
                                   Polarizability tX-amplitude response con
Performing DIIS for the z-component of dLdy
 ------------------------------------------------------------------------------
            Enorm      Xdiff       Comment
 ------------------------------------------------------------------------------
     1     6.21e+00   1.84e+00     
     2     8.57e+00   4.41e+00     
     3     8.39e+00   2.70e-01     
     4     3.66e+00   1.92e+00     Switched to DIIS steps.
     5     7.22e+00   7.06e+00     
     6     5.10e+00   1.70e+00     
     7     2.58e+00   1.41e+00     
     8     6.51e-01   3.49e+00     
     9     4.07e-01   1.02e+00     
    10     2.58e-01   7.80e-01     
    11     1.49e-01   3.59e-01     
    12     8.85e-02   2.32e-01     
    13     4.71e-02   2.35e-03     
    14     2.52e-02   4.86e-02     
    15     1.77e-02   6.99e-03     
    16     1.92e-02   6.72e-03     
    17     1.65e-02   1.15e-02     
    18     1.83e-02   6.09e-03     
    19     1.28e-02   3.17e-02     
    20     5.78e-03   9.96e-03     
    21     4.51e-03   3.36e-03     
    22     2.88e-03   2.17e-03     
    23     2.24e-03   3.16e-04     
    24     3.59e-03   2.28e-03     
    25     2.23e-03   3.86e-04     
    26     2.47e-03   3.68e-04     
    27     1.32e-03   5.79e-04     
    28     4.40e-04   1.29e-03     
    29     2.48e-04   1.20e-04     
    30     2.34e-04   2.09e-04     
    31     1.60e-04   8.39e-05     
    32     9.37e-05   1.27e-04     
    33     7.90e-05   2.46e-04     
    34     5.63e-05   4.39e-05     
    35     4.41e-05   1.57e-04     
    36     1.64e-05   2.78e-05     
    37     7.55e-06   2.39e-05     
    38     6.22e-06   4.02e-06     
    39     5.11e-06   2.97e-06     
    40     3.00e-06   1.14e-06     
    41     2.79e-06   7.08e-06     
    42     1.15e-06   6.34e-08     
    43     8.93e-07   3.07e-06     
    44     8.75e-07   2.43e-06     
    45     5.30e-07   4.56e-07     
 ------------------------------------------------------------------------------
                                   Polarizability tX-amplitude response con

Static polarizability with expectation-value approach using left response vectors

 Polarizability Tensor ALPHA_IJ, I,J=X,Y,Z (a.u.):
 ------------------------------------------------------------------------------
         74.95130937   -0.00000000    0.00000000
         -0.00000000   69.30255131    0.00000000
          0.00000000    0.00000000  200.88508773
 ------------------------------------------------------------------------------
 Isotropic polarizability: 1/3 * (a_xx + a_yy + a_zz)
 Isotropic polarizability in a.u. = 115.04631614
 Anisotropic polarizability: SQRT(0.5*((a_xx-a_yy)^2 + (a_yy-a_zz)^2 + (a_zz-a_xx)^2))
 Anisotropic polarizability in a.u. = 128.85105528
 ------------------------------------------------------------------------------
 Excited state properties for  EOMEE-CCSD transition 2/A1
 Dipole moment (a.u.): 3.713902 (X 0.000000, Y 0.000000, Z -3.713902)
 R-squared (a.u.): 1583.774008 (XX 310.089164, YY 50.887759, ZZ 1222.797086)
 Gauge origin (a.u.): (0.000000, 0.000000, 0.000000)
 Angular momentum (a.u.) against gauge origin: 
 (X 0.000000i, Y 0.000000i, Z 0.000000i)
 Traces of the OPDMs: Tr(AA) 36.000000, Tr(BB) 36.000000

           EOM Polarizability response will be solved using DIIS.
           Start     Size      MaxIter   EConv     XConv     
           3         7         100       1.00e-06  1.00e-06  
Performing DIIS for the x-component of dLdy
 ------------------------------------------------------------------------------
            Enorm      Xdiff       Comment
 ------------------------------------------------------------------------------
     1     3.77e+00   3.51e+00     
     2     3.52e+00   3.27e+00     
     3     3.29e+00   2.98e+00     
     4     3.45e+00   7.54e+00     Switched to DIIS steps.
     5     2.98e+00   7.30e+00     
     6     2.46e+00   8.54e-02     
     7     1.13e+00   9.22e+00     
     8     8.97e-01   1.13e+00     
     9     7.70e-01   2.43e+00     
    10     7.60e-01   6.37e-01     
    11     7.73e-01   2.56e-01     
    12     7.53e-01   4.36e-01     
    13     6.73e-01   7.78e-01     
    14     6.14e-01   2.33e-01     
    15     6.05e-01   6.17e-01     
    16     5.97e-01   7.12e-03     
    17     5.79e-01   8.93e-02     
    18     5.29e-01   8.28e-01     
    19     4.77e-01   8.43e-01     
    20     4.19e-01   1.57e+00     
    21     3.66e-01   7.37e-01     
    22     3.39e-01   1.31e+00     
    23     3.16e-01   5.61e-01     
    24     3.28e-01   1.04e+00     
    25     3.27e-01   5.00e-03     
    26     3.21e-01   4.12e-02     
    27     3.16e-01   2.16e-01     
    28     3.20e-01   1.78e-01     
    29     3.15e-01   2.48e-01     
    30     3.00e-01   7.92e-01     
    31     2.98e-01   1.07e-02     
    32     2.93e-01   1.46e-01     
    33     2.66e-01   6.04e-01     
    34     2.28e-01   2.07e+00     
    35     1.71e-01   6.98e+00     
    36     1.40e-01   4.97e+00     
    37     1.38e-01   1.99e+00     
    38     1.37e-01   1.04e-01     
    39     1.42e-01   5.60e-02     
    40     1.40e-01   3.31e-01     
    41     1.37e-01   1.57e-01     
    42     1.31e-01   6.85e-02     
    43     1.11e-01   2.47e+00     
    44     9.56e-02   3.92e+00     
    45     8.82e-02   1.72e+00     
    46     8.25e-02   1.22e+00     
    47     8.06e-02   7.21e-01     
    48     8.03e-02   1.35e-01     
    49     8.13e-02   1.16e-01     
    50     8.02e-02   3.57e-01     
    51     7.89e-02   9.39e-01     
    52     7.91e-02   8.31e-02     
    53     7.87e-02   2.62e-01     
    54     7.85e-02   9.65e-02     
    55     7.88e-02   5.29e-01     
    56     7.89e-02   4.63e-02     
    57     7.87e-02   1.25e-01     
    58     7.98e-02   2.43e-01     
    59     8.00e-02   4.38e-01     
    60     7.95e-02   3.23e-01     
    61     7.79e-02   2.55e-01     
    62     7.00e-02   6.70e-01     
    63     5.80e-02   1.05e+00     
    64     4.63e-02   2.40e+00     
    65     4.02e-02   9.48e-01     
    66     3.85e-02   3.12e-01     
    67     3.75e-02   5.12e-02     
    68     3.75e-02   5.56e-02     
    69     3.78e-02   1.68e-02     
    70     3.46e-02   9.38e-02     
    71     2.83e-02   3.20e-01     
    72     2.69e-02   9.81e-02     
    73     2.66e-02   2.05e-02     
    74     2.53e-02   7.78e-03     
    75     2.42e-02   1.69e-01     
    76     2.44e-02   5.20e-03     
    77     2.41e-02   5.52e-03     
    78     2.30e-02   2.90e-01     
    79     2.26e-02   1.79e-01     
    80     2.24e-02   1.02e-01     
    81     2.27e-02   3.67e-02     
    82     2.21e-02   1.39e-02     
    83     2.19e-02   7.88e-02     
    84     2.22e-02   1.50e-02     
    85     2.10e-02   4.60e-02     
    86     2.10e-02   5.02e-02     
    87     2.09e-02   1.31e-02     
    88     2.05e-02   4.62e-02     
    89     2.03e-02   3.90e-02     
    90     2.03e-02   8.27e-04     
    91     2.06e-02   4.72e-03     
    92     2.02e-02   1.54e-02     
    93     2.02e-02   1.76e-03     
    94     1.90e-02   1.50e-01     
    95     1.70e-02   4.15e-01     
    96     1.72e-02   1.14e-02     
    97     1.62e-02   1.90e-02     
    98     1.48e-02   6.91e-02     
    99     1.46e-02   5.86e-02     
 ------------------------------------------------------------------------------
                                   Polarizability tX-amplitude response con
Performing DIIS for the y-component of dLdy
 ------------------------------------------------------------------------------
            Enorm      Xdiff       Comment
 ------------------------------------------------------------------------------
     1     6.02e+00   5.70e+00     
     2     6.94e+00   6.71e+00     
     3     7.41e+00   7.16e+00     
     4     4.55e+00   1.79e+01     Switched to DIIS steps.
     5     4.34e+00   5.52e+00     
     6     3.15e+00   1.03e+01     
     7     2.58e+00   7.20e+00     
     8     2.58e+00   3.60e+00     
     9     2.58e+00   2.34e-01     
    10     2.55e+00   3.96e-01     
    11     2.34e+00   2.68e+00     
    12     1.88e+00   3.98e+00     
    13     1.49e+00   8.03e+00     
    14     1.21e+00   1.12e+01     
    15     9.56e-01   3.87e+00     
    16     7.37e-01   3.95e+00     
    17     3.55e-01   4.33e+00     
    18     3.04e-01   1.34e-01     
    19     2.60e-01   1.31e-01     
    20     2.52e-01   5.48e-01     
    21     2.54e-01   1.49e-01     
    22     2.51e-01   2.26e-01     
    23     2.50e-01   1.26e-01     
    24     2.50e-01   1.63e-01     
    25     2.49e-01   1.74e-01     
    26     2.48e-01   1.99e-01     
    27     2.46e-01   4.93e-02     
    28     2.41e-01   1.16e-02     
    29     2.37e-01   9.74e-02     
    30     2.40e-01   3.85e-01     
    31     2.34e-01   2.80e-01     
    32     2.30e-01   7.84e-01     
    33     2.29e-01   3.61e-02     
    34     2.28e-01   8.52e-02     
    35     2.27e-01   1.52e-02     
    36     2.27e-01   1.79e-02     
    37     2.25e-01   4.50e-02     
    38     2.26e-01   7.10e-02     
    39     2.26e-01   1.78e-01     
    40     2.27e-01   1.79e-01     
    41     2.24e-01   3.32e-01     
    42     2.25e-01   3.23e-01     
    43     2.21e-01   4.83e-02     
    44     2.11e-01   3.49e-01     
    45     1.90e-01   1.16e-01     
    46     1.74e-01   5.06e-01     
    47     1.60e-01   2.59e-01     
    48     1.46e-01   2.43e-02     
    49     1.28e-01   2.36e-01     
    50     1.23e-01   2.95e-02     
    51     1.22e-01   4.12e-01     
    52     1.21e-01   6.95e-02     
    53     1.22e-01   5.50e-02     
    54     1.19e-01   8.81e-02     
    55     1.12e-01   1.17e-01     
    56     9.82e-02   3.73e-01     
    57     8.72e-02   2.54e-01     
    58     8.26e-02   3.07e-01     
    59     8.29e-02   5.52e-02     
    60     8.19e-02   6.31e-02     
    61     8.25e-02   8.37e-02     
    62     8.06e-02   1.37e-01     
    63     8.10e-02   2.98e-02     
    64     8.10e-02   9.02e-02     
    65     8.27e-02   4.56e-02     
    66     7.70e-02   2.25e-01     
    67     7.12e-02   2.22e-02     
    68     5.36e-02   4.13e-01     
    69     4.70e-02   6.64e-02     
    70     4.14e-02   2.24e-02     
    71     3.93e-02   4.16e-02     
    72     3.64e-02   7.30e-02     
    73     3.66e-02   4.69e-03     
    74     3.57e-02   3.95e-02     
    75     3.38e-02   6.45e-02     
    76     3.26e-02   1.14e-02     
    77     3.22e-02   4.78e-03     
    78     3.21e-02   2.54e-03     
    79     3.22e-02   1.16e-03     
    80     3.22e-02   1.66e-02     
    81     3.21e-02   1.57e-03     
    82     3.22e-02   8.04e-03     
    83     3.17e-02   1.50e-02     
    84     3.06e-02   5.56e-02     
    85     3.07e-02   2.66e-02     
    86     3.07e-02   1.46e-02     
    87     3.08e-02   8.08e-03     
    88     3.10e-02   4.74e-03     
    89     3.07e-02   2.46e-03     
    90     2.99e-02   3.25e-02     
    91     2.96e-02   3.25e-02     
    92     2.93e-02   2.55e-02     
    93     2.92e-02   1.39e-02     
    94     2.95e-02   2.06e-02     
    95     2.90e-02   1.90e-02     
    96     2.90e-02   2.04e-02     
    97     2.92e-02   1.01e-02     
    98     2.89e-02   3.44e-03     
    99     2.90e-02   4.75e-03     
 ------------------------------------------------------------------------------
                                   Polarizability tX-amplitude response con
Performing DIIS for the z-component of dLdy
 ------------------------------------------------------------------------------
            Enorm      Xdiff       Comment
 ------------------------------------------------------------------------------
     1     6.89e+00   6.13e+00     
     2     9.23e+00   8.65e+00     
     3     1.28e+01   1.14e+01     
     4     6.12e+00   1.57e+01     Switched to DIIS steps.
     5     7.82e+00   6.06e+00     
     6     7.82e+00   6.50e-01     
     7     5.86e+00   1.15e+01     
     8     4.09e+00   5.50e+00     
     9     2.54e+00   1.62e+01     
    10     2.07e+00   8.93e-01     
    11     1.37e+00   5.98e+00     
    12     1.08e+00   4.56e+00     
    13     5.90e-01   2.10e+00     
    14     3.15e-01   7.74e-01     
    15     1.81e-01   9.96e-01     
    16     1.33e-01   2.53e-01     
    17     8.74e-02   2.13e-01     
    18     9.13e-02   1.57e-02     
    19     5.84e-02   1.59e-01     
    20     4.48e-02   1.32e-01     
    21     3.23e-02   3.09e-02     
    22     2.91e-02   2.38e-02     
    23     2.84e-02   3.46e-03     
    24     2.71e-02   4.73e-03     
    25     2.90e-02   1.11e-02     
    26     1.93e-02   3.78e-02     
    27     1.26e-02   2.80e-02     
    28     1.39e-02   6.57e-05     
    29     1.35e-02   1.82e-03     
    30     1.35e-02   1.80e-03     
    31     1.35e-02   1.01e-03     
    32     1.30e-02   7.33e-04     
    33     1.29e-02   6.59e-03     
    34     1.27e-02   3.59e-03     
    35     1.23e-02   1.50e-02     
    36     1.24e-02   3.74e-03     
    37     1.41e-02   4.93e-03     
    38     1.15e-02   1.40e-02     
    39     1.10e-02   5.91e-04     
    40     1.21e-02   1.00e-02     
    41     1.03e-02   2.09e-02     
    42     1.05e-02   3.61e-03     
    43     1.03e-02   5.12e-03     
    44     1.05e-02   1.20e-03     
    45     9.42e-03   1.19e-02     
    46     9.01e-03   2.14e-03     
    47     9.22e-03   1.69e-02     
    48     8.82e-03   1.01e-02     
    49     8.85e-03   1.93e-04     
    50     8.94e-03   4.10e-03     
    51     8.72e-03   8.21e-03     
    52     8.70e-03   4.49e-04     
    53     8.95e-03   6.44e-03     
    54     8.96e-03   8.58e-04     
    55     8.50e-03   5.43e-03     
    56     7.09e-03   3.46e-02     
    57     7.10e-03   5.54e-03     
    58     7.22e-03   1.89e-03     
    59     6.78e-03   3.89e-03     
    60     6.15e-03   6.66e-03     
    61     6.72e-03   6.49e-04     
    62     6.76e-03   2.28e-03     
    63     6.92e-03   9.14e-03     
    64     7.02e-03   2.12e-02     
    65     8.09e-03   1.76e-03     
    66     4.46e-03   1.10e-02     
    67     3.82e-03   2.88e-04     
    68     3.00e-03   1.55e-04     
    69     2.32e-03   2.55e-03     
    70     1.81e-03   6.21e-04     
    71     1.45e-03   5.90e-04     
    72     1.09e-03   6.89e-04     
    73     9.40e-04   5.01e-04     
    74     9.57e-04   1.19e-04     
    75     9.40e-04   1.23e-05     
    76     9.87e-04   2.81e-04     
    77     9.02e-04   6.04e-05     
    78     8.75e-04   9.95e-05     
    79     8.78e-04   5.95e-04     
    80     8.59e-04   2.30e-05     
    81     8.62e-04   4.92e-05     
    82     8.69e-04   3.92e-05     
    83     8.59e-04   1.79e-04     
    84     8.73e-04   2.57e-04     
    85     8.33e-04   2.63e-04     
    86     8.54e-04   1.27e-04     
    87     8.68e-04   2.36e-04     
    88     8.59e-04   1.80e-04     
    89     8.03e-04   9.70e-05     
    90     8.13e-04   4.34e-06     
    91     8.16e-04   1.54e-05     
    92     8.26e-04   2.78e-05     
    93     8.00e-04   2.13e-04     
    94     8.11e-04   1.80e-04     
    95     7.84e-04   6.60e-05     
    96     7.14e-04   1.40e-03     
    97     7.51e-04   4.97e-05     
    98     7.50e-04   7.50e-05     
    99     7.16e-04   9.15e-04     
 ------------------------------------------------------------------------------
                                   Polarizability tX-amplitude response con

Static polarizability with expectation-value approach using left response vectors

 Polarizability Tensor ALPHA_IJ, I,J=X,Y,Z (a.u.):
 ------------------------------------------------------------------------------
        162.00050255   -0.00000000    0.00000000
         -0.00000000    0.87878292    0.00000000
          0.00000000    0.00000000  224.85014703
 ------------------------------------------------------------------------------
 Isotropic polarizability: 1/3 * (a_xx + a_yy + a_zz)
 Isotropic polarizability in a.u. = 129.24314417
 Anisotropic polarizability: SQRT(0.5*((a_xx-a_yy)^2 + (a_yy-a_zz)^2 + (a_zz-a_xx)^2))
 Anisotropic polarizability in a.u. = 200.09180180
 ------------------------------------------------------------------------------
 EOMEE-CCSD calculation:   CPU 101897.09 s  wall 9600.31 s

 Total ccman2 time:   CPU 108818.03 s  wall 10304.00 s

 
 --------------------------------------------------------------
             Orbital Energies (a.u.) and Symmetries
 --------------------------------------------------------------
 
 Alpha MOs, Restricted
 -- Occupied --                  
-20.598 -20.598 -15.850 -15.608 -11.331 -11.295 -11.283 -11.283
  1 B1    1 A1    2 A1    3 A1    4 A1    5 A1    2 B1    6 A1                 
-11.261 -11.261  -1.600  -1.394  -1.262  -1.174  -1.064  -1.045
  3 B1    7 A1    8 A1    4 B1    9 A1   10 A1   11 A1    5 B1                 
 -0.940  -0.868  -0.824  -0.771  -0.737  -0.731  -0.710  -0.709
 12 A1    6 B1   13 A1   14 A1    7 B1   15 A1    8 B1    1 B2                 
 -0.642  -0.629  -0.613  -0.588  -0.562  -0.521  -0.484  -0.482
 16 A1    9 B1   10 B1   17 A1    2 B2   11 B1   18 A1   12 B1                 
 -0.477  -0.446  -0.367  -0.322
  3 B2    1 A2    2 A2    4 B2                                                 
 -- Virtual --                   
  0.020   0.033   0.043   0.054   0.056   0.064   0.085   0.089
 19 A1   13 B1   20 A1    5 B2   14 B1   21 A1   15 B1    3 A2                 
  0.100   0.110   0.119   0.126   0.129   0.134   0.137   0.150
 22 A1    6 B2   23 A1   24 A1   16 B1    4 A2    7 B2   25 A1                 
  0.150   0.151   0.163   0.164   0.172   0.174   0.178   0.188
  8 B2   17 B1   18 B1   26 A1   27 A1   19 B1   28 A1    5 A2                 
  0.190   0.195   0.200   0.207   0.209   0.213   0.229   0.239
  9 B2   10 B2   20 B1   29 A1   11 B2   21 B1   22 B1   30 A1                 
  0.260   0.261   0.274   0.276   0.289   0.299   0.305   0.307
 31 A1   23 B1   12 B2   32 A1   33 A1    6 A2   34 A1   24 B1                 
  0.321   0.333   0.343   0.344   0.354   0.361   0.364   0.371
 35 A1   13 B2   36 A1   25 B1   26 B1   14 B2   37 A1    7 A2                 
  0.372   0.382   0.389   0.393   0.396   0.401   0.406   0.416
 27 B1   38 A1   28 B1   39 A1   15 B2   40 A1   29 B1   41 A1                 
  0.420   0.430   0.433   0.440   0.462   0.476   0.489   0.493
  8 A2   30 B1   42 A1   31 B1   43 A1   32 B1   44 A1    9 A2                 
  0.504   0.507   0.508   0.523   0.527   0.560   0.572   0.573
 45 A1   16 B2   33 B1   17 B2   46 A1   47 A1   34 B1   10 A2                 
  0.585   0.591   0.593   0.603   0.621   0.624   0.639   0.646
 48 A1   35 B1   18 B2   49 A1   50 A1   36 B1   37 B1   19 B2                 
  0.653   0.662   0.668   0.684   0.687   0.690   0.690   0.693
 51 A1   38 B1   52 A1   11 A2   20 B2   53 A1   39 B1   54 A1                 
  0.717   0.725   0.737   0.740   0.752   0.763   0.767   0.773
 40 B1   41 B1   12 A2   55 A1   56 A1   42 B1   21 B2   43 B1                 
  0.787   0.813   0.839   0.844   0.861   0.877   0.883   0.891
 57 A1   22 B2   44 B1   45 B1   58 A1   46 B1   23 B2   59 A1                 
  0.891   0.893   0.906   0.922   0.935   0.936   0.943   0.946
 24 B2   13 A2   14 A2   60 A1   25 B2   47 B1   15 A2   26 B2                 
  0.947   0.980   0.998   1.002   1.012   1.013   1.022   1.058
 61 A1   62 A1   63 A1   48 B1   16 A2   64 A1   49 B1   65 A1                 
  1.075   1.079   1.114   1.133   1.133   1.158   1.186   1.231
 27 B2   17 A2   66 A1   18 A2   50 B1   67 A1   28 B2   51 B1                 
  1.249   1.257   1.275   1.276   1.294   1.300   1.309   1.340
 19 A2   68 A1   20 A2   52 B1   69 A1   29 B2   30 B2   53 B1                 
  1.358   1.383   1.392   1.437   1.452   1.475   1.485   1.493
 70 A1   21 A2   71 A1   54 B1   55 B1   31 B2   32 B2   22 A2                 
  1.507   1.509   1.540   1.549   1.571   1.583   1.617   1.621
 56 B1   72 A1   73 A1   74 A1   75 A1   57 B1   33 B2   58 B1                 
  1.629   1.638   1.644   1.649   1.651   1.682   1.684   1.698
 59 B1   76 A1   60 B1   77 A1   34 B2   23 A2   61 B1   24 A2                 
  1.714   1.718   1.729   1.741   1.759   1.770   1.807   1.863
 35 B2   36 B2   78 A1   62 B1   79 A1   80 A1   63 B1   37 B2                 
  1.866   1.882   1.884   1.889   1.895   1.947   1.961   1.975
 25 A2   64 B1   81 A1   38 B2   82 A1   65 B1   83 A1   39 B2                 
  1.978   1.991   2.002   2.015   2.060   2.107   2.116   2.119
 66 B1   40 B2   26 A2   84 A1   67 B1   68 B1   85 A1   27 A2                 
  2.125   2.191   2.192   2.193   2.211   2.215   2.239   2.251
 86 A1   87 A1   41 B2   69 B1   28 A2   88 A1   70 B1   42 B2                 
  2.253   2.259   2.285   2.294   2.337   2.349   2.352   2.378
 89 A1   29 A2   71 B1   90 A1   91 A1   72 B1   30 A2   73 B1                 
  2.410   2.413   2.447   2.459   2.485   2.497   2.546   2.582
 92 A1   74 B1   93 A1   94 A1   31 A2   43 B2   95 A1   32 A2                 
  2.588   2.633   2.657   2.658   2.707   2.774   2.778   2.787
 75 B1   96 A1   44 B2   76 B1   97 A1   77 B1   98 A1   33 A2                 
  2.827   2.828   2.859   2.873   2.945   2.956   3.011   3.050
 78 B1   99 A1   79 B1   45 B2  100 A1   80 B1  101 A1  102 A1                 
  3.113   3.140   3.204   3.269   3.284   3.313   3.459   3.618
103 A1   81 B1  104 A1   82 B1   83 B1  105 A1  106 A1  107 A1                 
  3.640   3.678   3.684   3.719   3.749   3.781   3.796   3.820
 84 B1   34 A2   46 B2   85 B1  108 A1   86 B1   47 B2   87 B1                 
  3.841   3.870   3.987   4.021   4.214   4.249   4.443   4.768
109 A1  110 A1   88 B1   35 A2  111 A1   89 B1  112 A1  113 A1                 
 
 Beta MOs, Restricted
 -- Occupied --                  
-20.598 -20.598 -15.850 -15.608 -11.331 -11.295 -11.283 -11.283
  1 B1    1 A1    2 A1    3 A1    4 A1    5 A1    2 B1    6 A1                 
-11.261 -11.261  -1.600  -1.394  -1.262  -1.174  -1.064  -1.045
  3 B1    7 A1    8 A1    4 B1    9 A1   10 A1   11 A1    5 B1                 
 -0.940  -0.868  -0.824  -0.771  -0.737  -0.731  -0.710  -0.709
 12 A1    6 B1   13 A1   14 A1    7 B1   15 A1    8 B1    1 B2                 
 -0.642  -0.629  -0.613  -0.588  -0.562  -0.521  -0.484  -0.482
 16 A1    9 B1   10 B1   17 A1    2 B2   11 B1   18 A1   12 B1                 
 -0.477  -0.446  -0.367  -0.322
  3 B2    1 A2    2 A2    4 B2                                                 
 -- Virtual --                   
  0.020   0.033   0.043   0.054   0.056   0.064   0.085   0.089
 19 A1   13 B1   20 A1    5 B2   14 B1   21 A1   15 B1    3 A2                 
  0.100   0.110   0.119   0.126   0.129   0.134   0.137   0.150
 22 A1    6 B2   23 A1   24 A1   16 B1    4 A2    7 B2   25 A1                 
  0.150   0.151   0.163   0.164   0.172   0.174   0.178   0.188
  8 B2   17 B1   18 B1   26 A1   27 A1   19 B1   28 A1    5 A2                 
  0.190   0.195   0.200   0.207   0.209   0.213   0.229   0.239
  9 B2   10 B2   20 B1   29 A1   11 B2   21 B1   22 B1   30 A1                 
  0.260   0.261   0.274   0.276   0.289   0.299   0.305   0.307
 31 A1   23 B1   12 B2   32 A1   33 A1    6 A2   34 A1   24 B1                 
  0.321   0.333   0.343   0.344   0.354   0.361   0.364   0.371
 35 A1   13 B2   36 A1   25 B1   26 B1   14 B2   37 A1    7 A2                 
  0.372   0.382   0.389   0.393   0.396   0.401   0.406   0.416
 27 B1   38 A1   28 B1   39 A1   15 B2   40 A1   29 B1   41 A1                 
  0.420   0.430   0.433   0.440   0.462   0.476   0.489   0.493
  8 A2   30 B1   42 A1   31 B1   43 A1   32 B1   44 A1    9 A2                 
  0.504   0.507   0.508   0.523   0.527   0.560   0.572   0.573
 45 A1   16 B2   33 B1   17 B2   46 A1   47 A1   34 B1   10 A2                 
  0.585   0.591   0.593   0.603   0.621   0.624   0.639   0.646
 48 A1   35 B1   18 B2   49 A1   50 A1   36 B1   37 B1   19 B2                 
  0.653   0.662   0.668   0.684   0.687   0.690   0.690   0.693
 51 A1   38 B1   52 A1   11 A2   20 B2   53 A1   39 B1   54 A1                 
  0.717   0.725   0.737   0.740   0.752   0.763   0.767   0.773
 40 B1   41 B1   12 A2   55 A1   56 A1   42 B1   21 B2   43 B1                 
  0.787   0.813   0.839   0.844   0.861   0.877   0.883   0.891
 57 A1   22 B2   44 B1   45 B1   58 A1   46 B1   23 B2   59 A1                 
  0.891   0.893   0.906   0.922   0.935   0.936   0.943   0.946
 24 B2   13 A2   14 A2   60 A1   25 B2   47 B1   15 A2   26 B2                 
  0.947   0.980   0.998   1.002   1.012   1.013   1.022   1.058
 61 A1   62 A1   63 A1   48 B1   16 A2   64 A1   49 B1   65 A1                 
  1.075   1.079   1.114   1.133   1.133   1.158   1.186   1.231
 27 B2   17 A2   66 A1   18 A2   50 B1   67 A1   28 B2   51 B1                 
  1.249   1.257   1.275   1.276   1.294   1.300   1.309   1.340
 19 A2   68 A1   20 A2   52 B1   69 A1   29 B2   30 B2   53 B1                 
  1.358   1.383   1.392   1.437   1.452   1.475   1.485   1.493
 70 A1   21 A2   71 A1   54 B1   55 B1   31 B2   32 B2   22 A2                 
  1.507   1.509   1.540   1.549   1.571   1.583   1.617   1.621
 56 B1   72 A1   73 A1   74 A1   75 A1   57 B1   33 B2   58 B1                 
  1.629   1.638   1.644   1.649   1.651   1.682   1.684   1.698
 59 B1   76 A1   60 B1   77 A1   34 B2   23 A2   61 B1   24 A2                 
  1.714   1.718   1.729   1.741   1.759   1.770   1.807   1.863
 35 B2   36 B2   78 A1   62 B1   79 A1   80 A1   63 B1   37 B2                 
  1.866   1.882   1.884   1.889   1.895   1.947   1.961   1.975
 25 A2   64 B1   81 A1   38 B2   82 A1   65 B1   83 A1   39 B2                 
  1.978   1.991   2.002   2.015   2.060   2.107   2.116   2.119
 66 B1   40 B2   26 A2   84 A1   67 B1   68 B1   85 A1   27 A2                 
  2.125   2.191   2.192   2.193   2.211   2.215   2.239   2.251
 86 A1   87 A1   41 B2   69 B1   28 A2   88 A1   70 B1   42 B2                 
  2.253   2.259   2.285   2.294   2.337   2.349   2.352   2.378
 89 A1   29 A2   71 B1   90 A1   91 A1   72 B1   30 A2   73 B1                 
  2.410   2.413   2.447   2.459   2.485   2.497   2.546   2.582
 92 A1   74 B1   93 A1   94 A1   31 A2   43 B2   95 A1   32 A2                 
  2.588   2.633   2.657   2.658   2.707   2.774   2.778   2.787
 75 B1   96 A1   44 B2   76 B1   97 A1   77 B1   98 A1   33 A2                 
  2.827   2.828   2.859   2.873   2.945   2.956   3.011   3.050
 78 B1   99 A1   79 B1   45 B2  100 A1   80 B1  101 A1  102 A1                 
  3.113   3.140   3.204   3.269   3.284   3.313   3.459   3.618
103 A1   81 B1  104 A1   82 B1   83 B1  105 A1  106 A1  107 A1                 
  3.640   3.678   3.684   3.719   3.749   3.781   3.796   3.820
 84 B1   34 A2   46 B2   85 B1  108 A1   86 B1   47 B2   87 B1                 
  3.841   3.870   3.987   4.021   4.214   4.249   4.443   4.768
109 A1  110 A1   88 B1   35 A2  111 A1   89 B1  112 A1  113 A1                 
 --------------------------------------------------------------
 
          Ground-State Mulliken Net Atomic Charges

     Atom                 Charge (a.u.)
  ----------------------------------------
      1 C                     1.010124
      2 C                     0.392066
      3 C                     0.701835
      4 C                     0.212228
      5 C                     0.701835
      6 C                     0.392066
      7 H                    -0.522764
      8 H                    -0.616265
      9 H                    -0.616265
     10 H                    -0.522764
     11 N                    -0.087347
     12 N                     0.462123
     13 O                    -0.679366
     14 O                    -0.679366
     15 H                    -0.074070
     16 H                    -0.074070
  ----------------------------------------
  Sum of atomic charges =     0.000000

 -----------------------------------------------------------------
                    Cartesian Multipole Moments
 -----------------------------------------------------------------
    Charge (ESU x 10^10)
                 0.0000
    Dipole Moment (Debye)
         X      -0.0000      Y       0.0000      Z      -6.7814
       Tot       6.7814
    Quadrupole Moments (Debye-Ang)
        XX     -53.7995     XY      -0.0000     YY     -61.8887
        XZ       0.0000     YZ      -0.0000     ZZ     -57.3542
    Octopole Moments (Debye-Ang^2)
       XXX      -0.0000    XXY       0.0000    XYY       0.0000
       YYY       0.0000    XXZ     -14.4521    XYZ       0.0000
       YYZ      14.4406    XZZ       0.0000    YZZ       0.0000
       ZZZ     -95.9053
    Hexadecapole Moments (Debye-Ang^3)
      XXXX    -375.4031   XXXY      -0.0000   XXYY     -86.3851
      XYYY      -0.0000   YYYY     -67.9219   XXXZ       0.0000
      XXYZ      -0.0000   XYYZ       0.0000   YYYZ      -0.0000
      XXZZ    -303.8650   XYZZ      -0.0000   YYZZ    -287.1179
      XZZZ       0.0000   YZZZ      -0.0000   ZZZZ   -1418.6934
 -----------------------------------------------------------------
Archival summary:
1\1\Knecht18\SP\ProcedureUnspecified\BasisUnspecified\2266\mscheure\SatMar1414:03:202020SatMar1414:03:202020\0\\#,ProcedureUnspecified,BasisUnspecified,\\0,1\N\O,1,1.22241\O,1,1.22241,2,124.967\C,1,1.46955,2,117.517,3,-180,0\C,4,1.40115,1,119.492,2,-180,0\H,5,1.09125,4,119.549,1,-0,0\C,5,1.39553,4,119.436,1,-180,0\H,7,1.09492,5,119.679,4,-180,0\C,4,1.40115,1,119.492,2,-0,0\H,9,1.09125,4,119.549,1,-0,0\C,9,1.39553,4,119.436,1,-180,0\H,11,1.09492,9,119.679,4,-180,0\C,7,1.417,5,120.77,4,-0,0\N,13,1.37289,7,120.714,5,-180,0\H,14,1.00812,13,120.836,7,-180,0\H,14,1.00812,13,120.836,7,-0,0\\HF=-489.277785\\@

 Total job time:  10527.54s(wall), 109582.57s(cpu) 
 Sat Mar 14 14:03:20 2020

        *************************************************************
        *                                                           *
        *  Thank you very much for using Q-Chem.  Have a nice day.  *
        *                                                           *
        *************************************************************


