Using QC=/export/home/mscheure/data/qchem_ccman2_pe/qchem
Using QCAUX=/opt/software/Q-Chem/qcaux_qchem_5.1
/export/home/mscheure/data/qchem_ccman2_pe/qchem/exe/qcprog.exe .stetrazine_eompol3_b13u.in.51558.qcin.1 /lscratch/mscheure/bla/qchem51558/
                  Welcome to Q-Chem
     A Quantum Leap Into The Future Of Chemistry


 Q-Chem 5.3 (devel), Q-Chem, Inc., Pleasanton, CA (2020)

 Yihan Shao,  Zhengting Gan,  E. Epifanovsky,  A. T. B. Gilbert,  M. Wormit,  
 J. Kussmann,  A. W. Lange,  A. Behn,  Jia Deng,  Xintian Feng,  D. Ghosh,  
 M. Goldey,  P. R. Horn,  L. D. Jacobson,  I. Kaliman,  T. Kus,  A. Landau,  
 Jie Liu,  E. I. Proynov,  R. M. Richard,  R. P. Steele,  E. J. Sundstrom,  
 H. L. Woodcock III,  P. M. Zimmerman,  D. Zuev,  B. Alam,  B. Albrecht,  
 E. Alguire,  S. A. Baeppler,  D. Barton,  Z. Benda,  Y. A. Bernard,  
 E. J. Berquist,  K. B. Bravaya,  H. Burton,  K. Carter-Fenk,  D. Casanova,  
 Chun-Min Chang,  Yunqing Chen,  A. Chien,  K. D. Closser,  M. P. Coons,  
 S. Coriani,  S. Dasgupta,  A. L. Dempwolff,  M. Diedenhofen,  Hainam Do,  
 R. G. Edgar,  Po-Tung Fang,  S. Faraji,  S. Fatehi,  Qingguo Feng,  
 J. Fosso-Tande,  J. Gayvert,  Qinghui Ge,  A. Ghysels,  G. Gidofalvi,  
 J. Gomes,  J. Gonthier,  A. Gunina,  D. Hait,  M. W. D. Hanson-Heine,  
 P. H. P. Harbach,  A. W. Hauser,  M. F. Herbst,  J. E. Herr,  
 E. G. Hohenstein,  Z. C. Holden,  Kerwin Hui,  B. C. Huynh,  T.-C. Jagau,  
 Hyunjun Ji,  B. Kaduk,  K. Khistyaev,  Jaehoon Kim,  P. Klunzinger,  K. Koh,  
 D. Kosenkov,  L. Koulias,  T. Kowalczyk,  C. M. Krauter,  A. Kunitsa,  
 Ka Un Lao,  A. Laurent,  K. V. Lawler,  Joonho Lee,  D. Lefrancois,  
 S. Lehtola,  D. S. Levine,  Yi-Pei Li,  You-Sheng Lin,  Fenglai Liu,  
 Kuan-Yu Liu,  E. Livshits,  M. Loipersberger,  A. Luenser,  P. Manohar,  
 E. Mansoor,  S. F. Manzer,  Shan-Ping Mao,  Yuezhi Mao,  N. Mardirossian,  
 A. V. Marenich,  T. Markovich,  L. A. Martinez-Martinez,  S. A. Maurer,  
 N. J. Mayhall,  S. C. McKenzie,  J.-M. Mewes,  P. Morgante,  A. F. Morrison,  
 J. W. Mullinax,  K. Nanda,  T. S. Nguyen-Beck,  R. Olivares-Amaya,  
 J. A. Parkhill,  S. K. Paul,  F. Pavosevic,  Zheng Pei,  T. M. Perrine,  
 F. Plasser,  P. Pokhilko,  S. Prager,  A. Prociuk,  E. Ramos,  B. Rana,  
 D. R. Rehn,  F. Rob,  M. Scheurer,  M. Schneider,  N. Sergueev,  
 S. M. Sharada,  S. Sharma,  D. W. Small,  T. Stauch,  C. J. Stein,  
 T. Stein,  Yu-Chuan Su,  S. P. Veccham,  Zhen Tao,  A. J. W. Thom,  
 A. Tkatchenko,  T. Tsuchimochi,  N. M. Tubman,  L. Vogt,  M. L. Vidal,  
 O. Vydrov,  M. A. Watson,  J. Wenzel,  M. de Wergifosse,  T. A. Wesolowski,  
 A. White,  J. Witte,  A. Yamada,  Jun Yang,  K. Yao,  S. Yeganeh,  
 S. R. Yost,  Zhi-Qiang You,  A. Zech,  Igor Ying Zhang,  Xing Zhang,  
 Yan Zhao,  Ying Zhu,  B. R. Brooks,  G. K. L. Chan,  C. J. Cramer,  
 M. S. Gordon,  W. J. Hehre,  A. Klamt,  M. W. Schmidt,  C. D. Sherrill,  
 D. G. Truhlar,  A. Aspuru-Guzik,  R. Baer,  A. T. Bell,  N. A. Besley,  
 Jeng-Da Chai,  A. E. DePrince, III,  R. A. DiStasio Jr.,  A. Dreuw,  
 B. D. Dunietz,  T. R. Furlani,  Chao-Ping Hsu,  Yousung Jung,  Jing Kong,  
 D. S. Lambrecht,  WanZhen Liang,  C. Ochsenfeld,  V. A. Rassolov,  
 L. V. Slipchenko,  J. E. Subotnik,  T. Van Voorhis,  J. M. Herbert,  
 A. I. Krylov,  P. M. W. Gill,  M. Head-Gordon

 Contributors to earlier versions of Q-Chem not listed above: 
 R. D. Adamson,  B. Austin,  J. Baker,  G. J. O. Beran,  K. Brandhorst,  
 S. T. Brown,  E. F. C. Byrd,  A. K. Chakraborty,  C.-L. Cheng,  
 Siu Hung Chien,  D. M. Chipman,  D. L. Crittenden,  H. Dachsel,  
 R. J. Doerksen,  A. D. Dutoi,  L. Fusti-Molnar,  W. A. Goddard III,  
 A. Golubeva-Zadorozhnaya,  S. R. Gwaltney,  G. Hawkins,  A. Heyden,  
 S. Hirata,  G. Kedziora,  F. J. Keil,  C. Kelley,  Jihan Kim,  R. A. King,  
 R. Z. Khaliullin,  P. P. Korambath,  W. Kurlancheek,  A. M. Lee,  M. S. Lee,  
 S. V. Levchenko,  Ching Yeh Lin,  D. Liotard,  R. C. Lochan,  I. Lotan,  
 P. E. Maslen,  N. Nair,  D. P. O'Neill,  D. Neuhauser,  E. Neuscamman,  
 C. M. Oana,  R. Olson,  B. Peters,  R. Peverati,  P. A. Pieniazek,  
 Y. M. Rhee,  J. Ritchie,  M. A. Rohrdanz,  E. Rosta,  N. J. Russ,  
 H. F. Schaefer III,  N. E. Schultz,  N. Shenvi,  A. C. Simmonett,  A. Sodt,  
 D. Stuck,  K. S. Thanthiriwatte,  V. Vanovschi,  Tao Wang,  A. Warshel,  
 C. F. Williams,  Q. Wu,  X. Xu,  W. Zhang

 Please cite Q-Chem as follows:
 Y. Shao et al., Mol. Phys. 113, 184-215 (2015)
 DOI: 10.1080/00268976.2014.952696

 Q-Chem 5.3.0 for Intel X86 EM64T Linux

 Parts of Q-Chem use Armadillo 9.800.1 (Horizon Scraper).
 http://arma.sourceforge.net/

 Q-Chem begins on Thu Mar  5 09:32:34 2020  

Host: x86_64-conda_cos6-linux-gnu
0

     Scratch files written to /lscratch/mscheure/bla/qchem51558//
Processing $rem in /export/home/mscheure/data/qchem_ccman2_pe/qchem/config/preferences:
Processing $rem in /export/home/mscheure/.qchemrc:
Core orbitals will be frozen

Checking the input file for inconsistencies... 	...done.

--------------------------------------------------------------
User input:
--------------------------------------------------------------
$molecule
 0 1
N	-0.6583000000	-1.1581100000	0.0000000000
C	-1.3082000000	0.0000000000	0.0000000000
N	-0.6583000000	1.1581100000	0.0000000000
N	0.6583000000	1.1581100000	0.0000000000
C	1.3082000000	0.0000000000	0.0000000000
N	0.6583000000	-1.1581100000	0.0000000000
H	2.3829000000	0.0000000000	0.0000000000
H	-2.3829000000	0.0000000000	0.0000000000
$end

$rem
   METHOD            ccsd
   BASIS             gen
   PURECART 1
   CC_REF_PROP       true
   CC_EOM_PROP       true
   CC_POL            3
   EOM_POL           3     ! EV
   CC_FULLRESPONSE   false ! Kaushik
   EE_SINGLETS       [0,0,0,0,0,1,1,1]
   !sym_ignore        true
   symmetry         false
   !cc_symmetry false
   mem_total 50000
   threads 12
$end

$basis
H     0
S   4   1.00
     33.685014                .006068
      5.094788                .045316
      1.158786                .202846
      0.325840                .503709
S   1   1.00
      0.102741               1.00000
S   1   1.00
      0.032400               1.00000
P   2   1.00
      1.1588                  .188440
      0.3258                  .882420
P   2   1.00
      0.1027                  .117800
      0.0324                  .004200
****
C     0
S   5   1.00
   5240.6353                  .000937
    782.20480                 .007228
    178.35083                 .036344
     50.815942                .130600
     16.823562                .318931
S   2   1.00
      6.175776                .438742
      2.418049                .214974
S   1   1.00
      0.511900               1.
S   1   1.00
      0.156590               1.
S   1   1.00
      0.047900               1.
P   4   1.00
     18.841800                .013887
      4.159240                .086279
      1.206710                .288744
      0.385540                .499411
P   1   1.00
      0.121940               1.
P   1   1.00
      0.038568               1.
D   2   1.00
      1.206710                .262852
      0.385540                .804300
D   2   1.00
      0.121940                .653500
      0.038658                .863600
****
N     0
S   5   1.00
   8104.0716                  .000802
   1216.0215                  .006174
    277.23428                 .031233
     76.904023                .115198
     25.874419                .296951
S   2   1.00
      9.346767                .447349
      3.579794                .245003
S   1   1.00
      0.739610               1.
S   1   1.00
      0.222617               1.
S   1   1.00
      0.067006               1.
P   4   1.00
     26.868987                .014478
      5.991227                .091156
      1.750842                .297420
      0.560511                .493796
P   1   1.00
      0.175948               1.
P   1   1.00
      0.055231               1.
D   2   1.00
      1.750842                .224774
      0.560511                .659562
D   2   1.00
      0.175948                .871355
      0.055231                .704217
****
O     0
S   5   1.00
  10662.285                   .000799
   1599.7097                  .006153
    364.72526                 .031157
    103.65179                 .115596
     33.905805                .301552
S   2   1.00
     12.287469                .444870
      4.756805                .243172
S   1   1.00
      1.004271               1.
S   1   1.00
      0.300686               1.
S   1   1.00
      0.09003                1.
P   4   1.00
     34.856463                .015648
      7.843131                .098197
      2.306249                .307768
      0.723164                .492470
P   1   1.00
      0.214882               1.
P   1   1.00
      0.06385                1.
D   2   1.00
      2.3062                  .20270
      0.7232                  .5791
D   2   1.00
      0.2149                  .78545
      0.0639                  .53387
****
$end
--------------------------------------------------------------
 ----------------------------------------------------------------
             Standard Nuclear Orientation (Angstroms)
    I     Atom           X                Y                Z
 ----------------------------------------------------------------
    1      N      -0.6583000000    -1.1581100000    -0.0000000000
    2      C      -1.3082000000     0.0000000000     0.0000000000
    3      N      -0.6583000000     1.1581100000     0.0000000000
    4      N       0.6583000000     1.1581100000     0.0000000000
    5      C       1.3082000000    -0.0000000000    -0.0000000000
    6      N       0.6583000000    -1.1581100000    -0.0000000000
    7      H       2.3829000000    -0.0000000000    -0.0000000000
    8      H      -2.3829000000     0.0000000000     0.0000000000
 ----------------------------------------------------------------
 Molecular Point Group                 D2h   NOp =  8
 Largest Abelian Subgroup              D2h   NOp =  8
 Nuclear Repulsion Energy =         213.84907634 hartrees
 There are       21 alpha and       21 beta electrons
 Requested basis set is non-standard
 There are 70 shells and 162 basis functions
 Total memory of 50000 MB is distributed as follows: 
   MEM_STATIC is set to 192 MB
   QALLOC/CCMAN JOB total memory use is  49808 MB
 Warning: actual memory use might exceed 50000 MB

 Total QAlloc Memory Limit  50000 MB
 Mega-Array Size       188 MB
 MEM_STATIC part       192 MB

                       Distance Matrix (Angstroms)
             N (  1)   C (  2)   N (  3)   N (  4)   C (  5)   N (  6)
   C (  2)  1.328002
   N (  3)  2.316220  1.328002
   N (  4)  2.664265  2.282179  1.316600
   C (  5)  2.282179  2.616400  2.282179  1.328002
   N (  6)  1.316600  2.282179  2.664265  2.316220  1.328002
   H (  7)  3.254246  3.691100  3.254246  2.077369  1.074700  2.077369
   H (  8)  2.077369  1.074700  2.077369  3.254246  3.691100  3.254246
             H (  7)
   H (  8)  4.765800
 
 A cutoff of  1.0D-14 yielded   2448 shell pairs
 There are     13352 function pairs (     15434 Cartesian)
 Smallest overlap matrix eigenvalue = 7.29E-06

 Scale SEOQF with 1.000000e-01/1.000000e-01/1.000000e-01

 Standard Electronic Orientation quadrupole field applied
 Nucleus-field energy     =     0.0000000043 hartrees
 Guess MOs from core Hamiltonian diagonalization

 -----------------------------------------------------------------------
  General SCF calculation program by
  Eric Jon Sundstrom, Paul Horn, Yuezhi Mao, Dmitri Zuev, Alec White,
  David Stuck, Shaama M.S., Shane Yost, Joonho Lee, David Small,
  Daniel Levine, Susi Lehtola, Hugh Burton, Evgeny Epifanovsky,
  Bang C. Huynh
 -----------------------------------------------------------------------
 Hartree-Fock
 using 12 threads for integral computing
 -------------------------------------------------------
 OpenMP Integral computing Module                
 Release: version 2.0, May 2017, Q-Chem Inc. Pleasanton 
 -------------------------------------------------------
 A restricted SCF calculation will be
 performed using DIIS
 SCF converges when DIIS error is below 1.0e-08
 ---------------------------------------
  Cycle       Energy         DIIS error
 ---------------------------------------
    1    -262.2503717694      1.01e-01  
    2    -224.5323215491      8.01e-02  
    3    -285.7141441145      4.72e-02  
    4    -293.4296439333      1.94e-02  
    5    -294.5339814287      5.65e-03  
    6    -294.6536339029      8.93e-04  
    7    -294.6596462813      3.42e-04  
    8    -294.6605712699      1.22e-04  
    9    -294.6606876288      2.18e-05  
   10    -294.6606922641      4.78e-06  
   11    -294.6606924145      6.76e-07  
   12    -294.6606924175      1.18e-07  
   13    -294.6606924176      3.05e-08  
   14    -294.6606924176      2.45e-09  Convergence criterion met
 ---------------------------------------
 SCF time:   CPU 192.19s  wall 16.00s 
 SCF   energy in the final basis set =     -294.6606924176
 Total energy in the final basis set =     -294.6606924176


 ------------------------------------------------------------------------------

   CCMAN2: suite of methods based on coupled cluster
           and equation of motion theories.

   Components:
   * libvmm-1.3-trunk
     by Evgeny Epifanovsky, Ilya Kaliman.
   * libtensor-2.5-trunk
     by Evgeny Epifanovsky, Michael Wormit, Dmitry Zuev, Sam Manzer, 
        Ilya Kaliman.
   * libcc-2.5-trunk
     by Evgeny Epifanovsky, Arik Landau, Tomasz Kus, Kirill Khistyaev, 
        Dmitry Zuev, Prashant Manohar, Xintian Feng, Anna Krylov, 
        Matthew Goldey, Alec White, Thomas Jagau, Kaushik Nanda, 
        Anastasia Gunina, Alexander Kunitsa, Joonho Lee.

   CCMAN original authors:
   Anna I. Krylov, C. David Sherrill, Steven R. Gwaltney,
   Edward F. C. Byrd (2000)
   Sergey V. Levchenko, Lyudmila V. Slipchenko, Tao Wang,
   Ana-Maria C. Cristian (2003)
   Piotr A. Pieniazek, C. Melania Oana, Evgeny Epifanovsky (2007)
   Prashant Manohar (2009)

 ------------------------------------------------------------------------------


 Allocating and initializing 49808MB of RAM...
 Calculation will run on 12 cores.

 
 Alpha MOs, Restricted
 -- Occupied --                  
-15.657 -15.657 -15.656 -15.656 -11.346 -11.346  -1.445  -1.331
  1 B2u   1 Ag    1 B1g   1 B3u   2 B3u   2 Ag    3 Ag    2 B2u                
 -1.203  -1.024  -0.967  -0.797  -0.757  -0.716  -0.649  -0.557
  3 B3u   2 B1g   4 Ag    3 B2u   5 Ag    4 B3u   1 B1u   4 B2u                
 -0.539  -0.527  -0.493  -0.440  -0.405
  6 Ag    5 B3u   1 B3g   1 B2g   3 B1g                                        
 -- Virtual --                   
  0.031   0.035   0.040   0.060   0.081   0.085   0.092   0.093
  1 Au    7 Ag    6 B3u   2 B1u   5 B2u   4 B1g   8 Ag    3 B1u                
  0.095   0.121   0.123   0.137   0.151   0.152   0.156   0.190
  2 B2g   7 B3u   9 Ag    6 B2u   2 B3g   8 B3u  10 Ag    4 B1u                
  0.198   0.202   0.217   0.227   0.228   0.246   0.268   0.269
  9 B3u   5 B1g   2 Au    7 B2u   6 B1g   5 B1u   8 B2u  11 Ag                 
  0.272   0.272   0.274   0.276   0.304   0.308   0.315   0.318
 10 B3u   3 B2g   4 B2g  12 Ag    7 B1g  13 Ag    3 B3g  14 Ag                 
  0.327   0.344   0.345   0.373   0.380   0.389   0.408   0.414
 11 B3u   9 B2u  12 B3u   6 B1u   5 B2g   8 B1g  10 B2u   7 B1u                
  0.415   0.418   0.448   0.477   0.487   0.489   0.494   0.517
  3 Au   15 Ag    9 B1g  13 B3u   6 B2g  14 B3u  16 Ag   10 B1g                
  0.535   0.540   0.593   0.613   0.613   0.625   0.640   0.654
 15 B3u  17 Ag   11 B2u   4 B3g  12 B2u  16 B3u   5 B3g  18 Ag                 
  0.668   0.688   0.690   0.711   0.718   0.721   0.729   0.732
 17 B3u  11 B1g  19 Ag   20 Ag   13 B2u   7 B2g   8 B1u  18 B3u                
  0.754   0.764   0.798   0.802   0.809   0.862   0.864   0.878
  9 B1u   4 Au   12 B1g   8 B2g  14 B2u  19 B3u  13 B1g   5 Au                 
  0.921   0.967   0.973   0.999   1.021   1.022   1.063   1.103
 21 Ag    6 B3g  20 B3u  10 B1u  14 B1g   9 B2g  21 B3u  22 Ag                 
  1.112   1.153   1.156   1.169   1.173   1.194   1.225   1.266
 10 B2g  11 B1u  15 B2u   6 Au   23 Ag   22 B3u  15 B1g  24 Ag                 
  1.352   1.370   1.381   1.405   1.408   1.418   1.451   1.553
 16 B2u  16 B1g  17 B2u  23 B3u   7 B3g  25 Ag   11 B2g  12 B1u                
  1.572   1.584   1.585   1.626   1.651   1.658   1.745   1.746
 17 B1g  24 B3u  18 B2u  26 Ag    7 Au   18 B1g  19 B2u  12 B2g                
  1.780   1.835   1.836   1.879   1.886   1.954   1.998   2.090
 25 B3u  13 B1u   8 B3g  27 Ag   26 B3u  28 Ag   20 B2u  29 Ag                 
  2.181   2.250   2.307   2.327   2.340   2.370   2.448   2.495
 27 B3u  21 B2u  28 B3u  14 B1u  19 B1g   9 B3g   8 Au   29 B3u                
  2.501   2.526   2.608   2.649   2.758   2.827   2.839   2.999
 30 Ag   20 B1g  22 B2u  13 B2g  14 B2g  31 Ag   21 B1g  23 B2u                
  3.014   3.150   3.183   3.266   3.305   3.450   4.056  22.863
  9 Au   30 B3u  32 Ag   31 B3u  22 B1g  23 B1g  32 B3u  33 Ag                 
 23.098  33.683  33.857  34.420  34.565
 33 B3u  34 Ag   24 B2u  34 B3u  24 B1g                                        
 
 Beta MOs, Restricted
 -- Occupied --                  
-15.657 -15.657 -15.656 -15.656 -11.346 -11.346  -1.445  -1.331
  1 B2u   1 Ag    1 B1g   1 B3u   2 B3u   2 Ag    3 Ag    2 B2u                
 -1.203  -1.024  -0.967  -0.797  -0.757  -0.716  -0.649  -0.557
  3 B3u   2 B1g   4 Ag    3 B2u   5 Ag    4 B3u   1 B1u   4 B2u                
 -0.539  -0.527  -0.493  -0.440  -0.405
  6 Ag    5 B3u   1 B3g   1 B2g   3 B1g                                        
 -- Virtual --                   
  0.031   0.035   0.040   0.060   0.081   0.085   0.092   0.093
  1 Au    7 Ag    6 B3u   2 B1u   5 B2u   4 B1g   8 Ag    3 B1u                
  0.095   0.121   0.123   0.137   0.151   0.152   0.156   0.190
  2 B2g   7 B3u   9 Ag    6 B2u   2 B3g   8 B3u  10 Ag    4 B1u                
  0.198   0.202   0.217   0.227   0.228   0.246   0.268   0.269
  9 B3u   5 B1g   2 Au    7 B2u   6 B1g   5 B1u   8 B2u  11 Ag                 
  0.272   0.272   0.274   0.276   0.304   0.308   0.315   0.318
 10 B3u   3 B2g   4 B2g  12 Ag    7 B1g  13 Ag    3 B3g  14 Ag                 
  0.327   0.344   0.345   0.373   0.380   0.389   0.408   0.414
 11 B3u   9 B2u  12 B3u   6 B1u   5 B2g   8 B1g  10 B2u   7 B1u                
  0.415   0.418   0.448   0.477   0.487   0.489   0.494   0.517
  3 Au   15 Ag    9 B1g  13 B3u   6 B2g  14 B3u  16 Ag   10 B1g                
  0.535   0.540   0.593   0.613   0.613   0.625   0.640   0.654
 15 B3u  17 Ag   11 B2u   4 B3g  12 B2u  16 B3u   5 B3g  18 Ag                 
  0.668   0.688   0.690   0.711   0.718   0.721   0.729   0.732
 17 B3u  11 B1g  19 Ag   20 Ag   13 B2u   7 B2g   8 B1u  18 B3u                
  0.754   0.764   0.798   0.802   0.809   0.862   0.864   0.878
  9 B1u   4 Au   12 B1g   8 B2g  14 B2u  19 B3u  13 B1g   5 Au                 
  0.921   0.967   0.973   0.999   1.021   1.022   1.063   1.103
 21 Ag    6 B3g  20 B3u  10 B1u  14 B1g   9 B2g  21 B3u  22 Ag                 
  1.112   1.153   1.156   1.169   1.173   1.194   1.225   1.266
 10 B2g  11 B1u  15 B2u   6 Au   23 Ag   22 B3u  15 B1g  24 Ag                 
  1.352   1.370   1.381   1.405   1.408   1.418   1.451   1.553
 16 B2u  16 B1g  17 B2u  23 B3u   7 B3g  25 Ag   11 B2g  12 B1u                
  1.572   1.584   1.585   1.626   1.651   1.658   1.745   1.746
 17 B1g  24 B3u  18 B2u  26 Ag    7 Au   18 B1g  19 B2u  12 B2g                
  1.780   1.835   1.836   1.879   1.886   1.954   1.998   2.090
 25 B3u  13 B1u   8 B3g  27 Ag   26 B3u  28 Ag   20 B2u  29 Ag                 
  2.181   2.250   2.307   2.327   2.340   2.370   2.448   2.495
 27 B3u  21 B2u  28 B3u  14 B1u  19 B1g   9 B3g   8 Au   29 B3u                
  2.501   2.526   2.608   2.649   2.758   2.827   2.839   2.999
 30 Ag   20 B1g  22 B2u  13 B2g  14 B2g  31 Ag   21 B1g  23 B2u                
  3.014   3.150   3.183   3.266   3.305   3.450   4.056  22.863
  9 Au   30 B3u  32 Ag   31 B3u  22 B1g  23 B1g  32 B3u  33 Ag                 
 23.098  33.683  33.857  34.420  34.565
 33 B3u  34 Ag   24 B2u  34 B3u  24 B1g                                        

 Occupation and symmetry of molecular orbitals

 Point group: D2h (8 irreducible representations).

                           Ag   B1g  B2g  B3g  Au   B1u  B2u  B3u   All 
 ------------------------------------------------------------------------
 All molecular orbitals:
  - Alpha                  34   24   14   9    9    14   24   34    162 
  - Beta                   34   24   14   9    9    14   24   34    162 
 ------------------------------------------------------------------------
 Alpha orbitals:
  - Frozen occupied        2    1    0    0    0    0    1    2     6   
  - Active occupied        4    2    1    1    0    1    3    3     15  
  - Active virtual         28   21   13   8    9    13   20   29    141 
  - Frozen virtual         0    0    0    0    0    0    0    0     0   
 ------------------------------------------------------------------------
 Beta orbitals:
  - Frozen occupied        2    1    0    0    0    0    1    2     6   
  - Active occupied        4    2    1    1    0    1    3    3     15  
  - Active virtual         28   21   13   8    9    13   20   29    141 
  - Frozen virtual         0    0    0    0    0    0    0    0     0   
 ------------------------------------------------------------------------

 Import integrals:   CPU 0.00 s  wall 0.00 s

 Import integrals:   CPU 56.22 s  wall 6.02 s

 MP2 amplitudes:   CPU 6.99 s  wall 6.07 s

Running a double precision version
           CCSD T amplitudes will be solved using DIIS.

           Start     Size      MaxIter   EConv     TConv     
           3         7         100       1.00e-06  1.00e-04  
 ------------------------------------------------------------------------------
           Energy (a.u.)   Ediff      Tdiff       Comment
 ------------------------------------------------------------------------------
          -295.59227005                           
     1    -295.56478564   2.75e-02   9.24e-01     
     2    -295.60033685   3.56e-02   1.43e-01     
     3    -295.59810368   2.23e-03   5.63e-02     
     4    -295.60155285   3.45e-03   1.65e-02     Switched to DIIS steps.
     5    -295.60282566   1.27e-03   1.35e-02     
     6    -295.60287989   5.42e-05   2.33e-03     
     7    -295.60286822   1.17e-05   1.16e-03     
     8    -295.60286774   4.75e-07   2.06e-04     
     9    -295.60286807   3.22e-07   8.97e-05     
 ------------------------------------------------------------------------------
          -295.60286807                           CCSD T converged.

End of double precision
 SCF energy                 = -294.66069242
 MP2 energy                 = -295.59227005
 CCSD correlation energy    =   -0.94217565
 CCSD total energy          = -295.60286807

 CCSD  T1^2 = 0.0102  T2^2 = 0.3506  Leading amplitudes:

 Amplitude    Orbitals with energies
  0.0225       1 (B3g) A                 ->    6 (B3g) A                  
              -0.4935                          0.9665                     
  0.0225       1 (B3g) B                 ->    6 (B3g) B                  
              -0.4935                          0.9665                     
 -0.0189       3 (B1g) A                 ->    8 (B1g) A                  
              -0.4051                          0.3888                     
 -0.0189       3 (B1g) B                 ->    8 (B1g) B                  
              -0.4051                          0.3888                     

 Amplitude    Orbitals with energies
 -0.0913       1 (B3g) A     1 (B3g) B   ->    1 (Au) A      1 (Au) B     
              -0.4935       -0.4935            0.0307        0.0307       
  0.0913       1 (B3g) A     1 (B3g) B   ->    1 (Au) B      1 (Au) A     
              -0.4935       -0.4935            0.0307        0.0307       
  0.0913       1 (B3g) B     1 (B3g) A   ->    1 (Au) A      1 (Au) B     
              -0.4935       -0.4935            0.0307        0.0307       
 -0.0913       1 (B3g) B     1 (B3g) A   ->    1 (Au) B      1 (Au) A     
              -0.4935       -0.4935            0.0307        0.0307       

 Computing CCSD intermediates for later calculations in double precision
 Finished.

Running a double precision version
           CCSD Lambda amplitudes will be solved using DIIS.
           Start     Size      MaxIter   EConv     LConv     
           3         7         100       1.00e-06  1.00e-04  
 ------------------------------------------------------------------------------
            Enorm      Ldiff       Comment
 ------------------------------------------------------------------------------
     1     6.21e-02   5.01e-02     
     2     1.23e-02   4.12e-04     
     3     4.64e-03   2.73e-03     
     4     1.87e-03   2.25e-04     Switched to DIIS steps.
     5     5.52e-04   5.29e-04     
     6     2.30e-04   1.00e-04     
     7     7.31e-05   2.90e-05     
     8     2.92e-05   4.77e-06     
     9     1.01e-05   5.13e-07     
    10     3.93e-06   1.72e-07     
    11     1.41e-06   1.59e-07     
    12     5.42e-07   9.36e-08     
 ------------------------------------------------------------------------------
                                   CCSD Lambda converged.

 Computing density matrices in double precision...
 Computing density matrices... Done.
 Reference state properties
 Dipole moment (a.u.): 0.000000 (X 0.000000, Y 0.000000, Z 0.000000)
 R-squared (a.u.): 370.220819 (XX 177.758382, YY 167.622774, ZZ 24.839664)
 Gauge origin (a.u.): (0.000000, 0.000000, 0.000000)
 Angular momentum (a.u.) against gauge origin: 
 (X 0.000000i, Y 0.000000i, Z 0.000000i)
 Traces of the OPDMs: Tr(AA) 21.000000, Tr(BB) 21.000000
 Density matrix was written to a file for further analysis.
           CCSD Polarizability response will be solved using DIIS.
           Start     Size      MaxIter   EConv     XConv     
           3         7         100       1.00e-06  1.00e-06  
Performing DIIS for the x-component of dTdy
 ------------------------------------------------------------------------------
            Enorm      Xdiff       Comment
 ------------------------------------------------------------------------------
     1     1.51e+00   1.27e+00     
     2     9.83e-01   9.31e-01     
     3     5.36e-01   4.80e-01     
     4     1.62e-01   6.44e-01     Switched to DIIS steps.
     5     6.87e-02   1.10e-01     
     6     1.41e-02   4.73e-02     
     7     4.11e-03   3.85e-03     
     8     1.82e-03   8.87e-04     
     9     5.38e-04   1.20e-04     
    10     2.51e-04   5.89e-06     
    11     7.16e-05   2.56e-05     
    12     2.87e-05   9.31e-07     
    13     8.75e-06   1.92e-06     
    14     4.18e-06   2.29e-06     
    15     1.88e-06   2.02e-06     
    16     8.68e-07   9.10e-07     
 ------------------------------------------------------------------------------
                                   Polarizability X-amplitude response conv
Performing DIIS for the y-component of dTdy
 ------------------------------------------------------------------------------
            Enorm      Xdiff       Comment
 ------------------------------------------------------------------------------
     1     1.41e+00   1.14e+00     
     2     9.59e-01   8.98e-01     
     3     5.53e-01   4.82e-01     
     4     1.96e-01   7.07e-01     Switched to DIIS steps.
     5     9.58e-02   1.62e-01     
     6     3.54e-02   8.46e-02     
     7     1.33e-02   1.82e-02     
     8     6.12e-03   5.57e-03     
     9     1.65e-03   1.64e-03     
    10     6.87e-04   1.44e-04     
    11     1.84e-04   2.37e-05     
    12     7.32e-05   8.10e-06     
    13     2.86e-05   1.08e-05     
    14     1.59e-05   9.67e-06     
    15     8.01e-06   9.83e-06     
    16     4.73e-06   4.42e-06     
    17     2.75e-06   3.07e-06     
    18     1.32e-06   1.97e-06     
    19     5.87e-07   8.38e-07     
 ------------------------------------------------------------------------------
                                   Polarizability X-amplitude response conv
Performing DIIS for the z-component of dTdy
 ------------------------------------------------------------------------------
            Enorm      Xdiff       Comment
 ------------------------------------------------------------------------------
     1     9.51e-01   7.95e-01     
     2     5.71e-01   4.87e-01     
     3     3.81e-01   2.84e-01     
     4     2.25e-01   4.34e-01     Switched to DIIS steps.
     5     1.43e-01   3.19e-01     
     6     7.07e-02   3.38e-01     
     7     2.41e-02   2.20e-01     
     8     9.98e-03   4.97e-02     
     9     3.90e-03   7.22e-03     
    10     1.65e-03   3.03e-03     
    11     4.94e-04   1.54e-04     
    12     2.00e-04   5.54e-05     
    13     9.34e-05   2.37e-06     
    14     5.85e-05   1.85e-05     
    15     4.44e-05   3.76e-05     
    16     2.99e-05   5.92e-05     
    17     1.67e-05   7.30e-05     
    18     8.06e-06   4.50e-05     
    19     4.14e-06   2.02e-05     
    20     1.56e-06   7.76e-06     
    21     8.32e-07   1.88e-06     
    22     3.60e-07   1.42e-07     
 ------------------------------------------------------------------------------
                                   Polarizability X-amplitude response conv

Static polarizability with expectation-value approach using right response vectors

 Polarizability Tensor ALPHA_IJ, I,J=X,Y,Z (a.u.):
 ------------------------------------------------------------------------------
        -63.59224451   -0.00000000   -0.00000000
         -0.00000000  -56.18332848   -0.00000000
         -0.00000000   -0.00000000  -33.55148238
 ------------------------------------------------------------------------------
 Isotropic polarizability: 1/3 * (a_xx + a_yy + a_zz)
 Isotropic polarizability in a.u. = -51.10901846
 Anisotropic polarizability: SQRT(0.5*((a_xx-a_yy)^2 + (a_yy-a_zz)^2 + (a_zz-a_xx)^2))
 Anisotropic polarizability in a.u. = 27.10664019
 ------------------------------------------------------------------------------

 CCSD calculation:   CPU 1083.36 s  wall 156.53 s

        Solving for EOMEE-CCSD B1u singlet states.

Running a double precision version
        EOMEE-CCSD/MP2 right amplitudes will be solved using Davidson.
        Amplitudes will be solved using standard  algorithm.
     Hard-coded thresholds: 
     LinDepThresh=1.00e-15  NormThresh=1.00e-06  ReorthogonThresh=1.00e-02

      Roots     MaxVec    MaxIter   Precond   Conv      Shift    
      1         120       60        1         1.00e-05  0.00e+00  
 ------------------------------------------------------------------------------
      Iter ConvRoots NVecs ResNorm Current eigenvalues (eV)
 ------------------------------------------------------------------------------
      0    0      1     1.18e-01   12.5700   
      1    0      2     6.82e-02   10.6330   
      2    0      3     1.17e-02   9.9678   
      3    0      4     2.35e-03   9.7899   
      4    0      5     1.43e-03   9.7309   
      5    0      6     2.27e-02   9.6452   
      6    0      7     1.16e-01   3.9694   
      7    0      8     7.95e-03   2.5040   
      8    0      9     1.44e-03   2.4181   
      9    0      10    2.56e-04   2.3938   
      10   0      11    5.80e-05   2.3891   
      11   1      12    8.46e-06   2.3878*  

     Davidson procedure converged

 EOMEE transition 1/B1u
 Total energy = -295.51511902 a.u.  Excitation energy = 2.3878 eV.
 R0^2 = 0.0000  R1^2 = 0.9141  R2^2 = 0.0859  Res^2 = 8.46e-06
 Conv-d = yes

 Amplitude    Transitions between orbitals
 -0.6659       3 (B1g) A                 ->    1 (Au) A                   
 -0.6659       3 (B1g) B                 ->    1 (Au) B                   
  0.0887       3 (B1g) A                 ->    2 (Au) A                   
  0.0887       3 (B1g) B                 ->    2 (Au) B                   

              Summary of significant orbitals:

               Number  Type             Irrep      Energy
               21      Occ  Alpha       3 (B1g)     -0.4051
               21      Occ  Beta        3 (B1g)     -0.4051
               22      Vir  Alpha       1 (Au)      0.0307
               40      Vir  Alpha       2 (Au)      0.2166
               22      Vir  Beta        1 (Au)      0.0307
               40      Vir  Beta        2 (Au)      0.2166


Running a double precision version
      EOM-CCSD/MP2 left amplitudes will be solved using Davidson.
        Amplitudes will be solved using MOM  algorithm.
     Hard-coded thresholds: 
     LinDepThresh=1.00e-15  NormThresh=1.00e-06  ReorthogonThresh=1.00e-02

      Roots     MaxVec    MaxIter   Precond   Conv      Shift    
      1         120       60        1         1.00e-05  0.00e+00  
 ------------------------------------------------------------------------------
      Iter ConvRoots NVecs ResNorm Current eigenvalues (eV)
 ------------------------------------------------------------------------------
      0    0      1     1.16e-02   2.3878   
      1    0      2     4.92e-03   2.3879   
      2    0      3     4.99e-04   2.3878   
      3    0      4     2.64e-05   2.3877   
      4    1      5     4.19e-06   2.3877*  

     Davidson procedure converged

 Excited state properties for  EOMEE-CCSD transition 1/B1u
 Dipole moment (a.u.): 0.000000 (X 0.000000, Y 0.000000, Z 0.000000)
 R-squared (a.u.): 368.254383 (XX 177.060511, YY 165.412658, ZZ 25.781214)
 Gauge origin (a.u.): (0.000000, 0.000000, 0.000000)
 Angular momentum (a.u.) against gauge origin: 
 (X 0.000000i, Y 0.000000i, Z 0.000000i)
 Traces of the OPDMs: Tr(AA) 21.000000, Tr(BB) 21.000000

           EOM Polarizability response will be solved using DIIS.
           Start     Size      MaxIter   EConv     XConv     
           3         7         100       1.00e-06  1.00e-06  
Performing DIIS for the x-component of dRdy
 ------------------------------------------------------------------------------
            Enorm      Xdiff       Comment
 ------------------------------------------------------------------------------
     1     1.33e+00   1.25e+00     
     2     8.65e-01   8.15e-01     
     3     5.83e-01   5.21e-01     
     4     2.83e-01   9.63e-01     Switched to DIIS steps.
     5     1.74e-01   3.61e-01     
     6     8.19e-02   3.99e-01     
     7     2.95e-02   1.71e-01     
     8     1.44e-02   4.95e-02     
     9     5.52e-03   1.38e-02     
    10     3.19e-03   2.62e-03     
    11     1.41e-03   8.28e-05     
    12     9.49e-04   6.49e-04     
    13     5.56e-04   3.05e-04     
    14     3.45e-04   1.07e-04     
    15     1.68e-04   2.59e-04     
    16     7.06e-05   2.83e-04     
    17     3.67e-05   1.24e-04     
    18     1.33e-05   9.01e-05     
    19     6.48e-06   1.73e-05     
    20     3.44e-06   4.86e-07     
    21     1.69e-06   4.64e-06     
    22     5.70e-07   4.19e-07     
 ------------------------------------------------------------------------------
                                   Polarizability X-amplitude response conv
Performing DIIS for the y-component of dRdy
 ------------------------------------------------------------------------------
            Enorm      Xdiff       Comment
 ------------------------------------------------------------------------------
     1     1.60e+00   1.41e+00     
     2     1.38e+00   1.32e+00     
     3     1.02e+00   9.38e-01     
     4     6.41e-01   2.33e+00     Switched to DIIS steps.
     5     4.07e-01   1.23e+00     
     6     1.40e-01   1.79e+00     
     7     6.36e-02   2.47e-01     
     8     3.57e-02   1.77e-01     
     9     1.42e-02   5.91e-03     
    10     8.05e-03   1.38e-03     
    11     2.74e-03   1.06e-02     
    12     1.27e-03   2.78e-03     
    13     4.26e-04   4.49e-05     
    14     2.33e-04   1.69e-04     
    15     1.26e-04   5.90e-05     
    16     7.59e-05   3.62e-05     
    17     4.70e-05   6.98e-05     
    18     2.41e-05   8.09e-05     
    19     1.33e-05   3.16e-05     
    20     6.97e-06   2.47e-05     
    21     3.91e-06   1.17e-05     
    22     2.33e-06   9.58e-06     
    23     9.64e-07   7.90e-06     
    24     3.81e-07   1.88e-06     
    25     1.50e-07   5.48e-07     
 ------------------------------------------------------------------------------
                                   Polarizability X-amplitude response conv
Performing DIIS for the z-component of dRdy
 ------------------------------------------------------------------------------
            Enorm      Xdiff       Comment
 ------------------------------------------------------------------------------
     1     8.36e-01   7.92e-01     
     2     4.53e-01   4.17e-01     
     3     2.60e-01   2.26e-01     
     4     8.10e-02   2.87e-01     Switched to DIIS steps.
     5     3.70e-02   6.34e-02     
     6     1.93e-02   1.61e-02     
     7     6.53e-03   1.21e-02     
     8     3.12e-03   1.98e-03     
     9     1.31e-03   3.29e-05     
    10     6.22e-04   1.95e-04     
    11     1.90e-04   1.43e-04     
    12     1.07e-04   2.05e-05     
    13     4.66e-05   7.35e-06     
    14     1.97e-05   2.35e-05     
    15     9.12e-06   8.99e-06     
    16     3.67e-06   3.80e-06     
    17     1.59e-06   1.25e-06     
    18     7.15e-07   1.19e-07     
 ------------------------------------------------------------------------------
                                   Polarizability X-amplitude response conv

Static polarizability with expectation-value approach using right response vectors

 Polarizability Tensor ALPHA_IJ, I,J=X,Y,Z (a.u.):
 ------------------------------------------------------------------------------
         49.28476048    0.00000000    0.00000000
          0.00000000   71.74879194    0.00000000
          0.00000000    0.00000000   26.03079684
 ------------------------------------------------------------------------------
 Isotropic polarizability: 1/3 * (a_xx + a_yy + a_zz)
 Isotropic polarizability in a.u. = 49.02144975
 Anisotropic polarizability: SQRT(0.5*((a_xx-a_yy)^2 + (a_yy-a_zz)^2 + (a_zz-a_xx)^2))
 Anisotropic polarizability in a.u. = 39.59491514
 ------------------------------------------------------------------------------
        Solving for EOMEE-CCSD B2u singlet states.

Running a double precision version
        EOMEE-CCSD/MP2 right amplitudes will be solved using Davidson.
        Amplitudes will be solved using standard  algorithm.
     Hard-coded thresholds: 
     LinDepThresh=1.00e-15  NormThresh=1.00e-06  ReorthogonThresh=1.00e-02

      Roots     MaxVec    MaxIter   Precond   Conv      Shift    
      1         120       60        1         1.00e-05  0.00e+00  
 ------------------------------------------------------------------------------
      Iter ConvRoots NVecs ResNorm Current eigenvalues (eV)
 ------------------------------------------------------------------------------
      0    0      1     1.94e-01   11.1187   
      1    0      2     1.38e-01   7.9463   
      2    0      3     1.23e-02   7.0921   
      3    0      4     2.00e-03   6.9141   
