                  Welcome to Q-Chem
     A Quantum Leap Into The Future Of Chemistry


 Q-Chem 5.3 (devel), Q-Chem, Inc., Pleasanton, CA (2020)

 Yihan Shao,  Zhengting Gan,  E. Epifanovsky,  A. T. B. Gilbert,  M. Wormit,  
 J. Kussmann,  A. W. Lange,  A. Behn,  Jia Deng,  Xintian Feng,  D. Ghosh,  
 M. Goldey,  P. R. Horn,  L. D. Jacobson,  I. Kaliman,  T. Kus,  A. Landau,  
 Jie Liu,  E. I. Proynov,  R. M. Richard,  R. P. Steele,  E. J. Sundstrom,  
 H. L. Woodcock III,  P. M. Zimmerman,  D. Zuev,  B. Alam,  B. Albrecht,  
 E. Alguire,  S. A. Baeppler,  D. Barton,  Z. Benda,  Y. A. Bernard,  
 E. J. Berquist,  K. B. Bravaya,  H. Burton,  K. Carter-Fenk,  D. Casanova,  
 Chun-Min Chang,  Yunqing Chen,  A. Chien,  K. D. Closser,  M. P. Coons,  
 S. Coriani,  S. Dasgupta,  A. L. Dempwolff,  M. Diedenhofen,  Hainam Do,  
 R. G. Edgar,  Po-Tung Fang,  S. Faraji,  S. Fatehi,  Qingguo Feng,  
 J. Fosso-Tande,  J. Gayvert,  Qinghui Ge,  A. Ghysels,  G. Gidofalvi,  
 J. Gomes,  J. Gonthier,  A. Gunina,  D. Hait,  M. W. D. Hanson-Heine,  
 P. H. P. Harbach,  A. W. Hauser,  M. F. Herbst,  J. E. Herr,  
 E. G. Hohenstein,  Z. C. Holden,  Kerwin Hui,  B. C. Huynh,  T.-C. Jagau,  
 Hyunjun Ji,  B. Kaduk,  K. Khistyaev,  Jaehoon Kim,  P. Klunzinger,  K. Koh,  
 D. Kosenkov,  L. Koulias,  T. Kowalczyk,  C. M. Krauter,  A. Kunitsa,  
 Ka Un Lao,  A. Laurent,  K. V. Lawler,  Joonho Lee,  D. Lefrancois,  
 S. Lehtola,  D. S. Levine,  Yi-Pei Li,  You-Sheng Lin,  Fenglai Liu,  
 Kuan-Yu Liu,  E. Livshits,  M. Loipersberger,  A. Luenser,  P. Manohar,  
 E. Mansoor,  S. F. Manzer,  Shan-Ping Mao,  Yuezhi Mao,  N. Mardirossian,  
 A. V. Marenich,  T. Markovich,  L. A. Martinez-Martinez,  S. A. Maurer,  
 N. J. Mayhall,  S. C. McKenzie,  J.-M. Mewes,  P. Morgante,  A. F. Morrison,  
 J. W. Mullinax,  K. Nanda,  T. S. Nguyen-Beck,  R. Olivares-Amaya,  
 J. A. Parkhill,  S. K. Paul,  F. Pavosevic,  Zheng Pei,  T. M. Perrine,  
 F. Plasser,  P. Pokhilko,  S. Prager,  A. Prociuk,  E. Ramos,  B. Rana,  
 D. R. Rehn,  F. Rob,  M. Scheurer,  M. Schneider,  N. Sergueev,  
 S. M. Sharada,  S. Sharma,  D. W. Small,  T. Stauch,  C. J. Stein,  
 T. Stein,  Yu-Chuan Su,  S. P. Veccham,  Zhen Tao,  A. J. W. Thom,  
 A. Tkatchenko,  T. Tsuchimochi,  N. M. Tubman,  L. Vogt,  M. L. Vidal,  
 O. Vydrov,  M. A. Watson,  J. Wenzel,  M. de Wergifosse,  T. A. Wesolowski,  
 A. White,  J. Witte,  A. Yamada,  Jun Yang,  K. Yao,  S. Yeganeh,  
 S. R. Yost,  Zhi-Qiang You,  A. Zech,  Igor Ying Zhang,  Xing Zhang,  
 Yan Zhao,  Ying Zhu,  B. R. Brooks,  G. K. L. Chan,  C. J. Cramer,  
 M. S. Gordon,  W. J. Hehre,  A. Klamt,  M. W. Schmidt,  C. D. Sherrill,  
 D. G. Truhlar,  A. Aspuru-Guzik,  R. Baer,  A. T. Bell,  N. A. Besley,  
 Jeng-Da Chai,  A. E. DePrince, III,  R. A. DiStasio Jr.,  A. Dreuw,  
 B. D. Dunietz,  T. R. Furlani,  Chao-Ping Hsu,  Yousung Jung,  Jing Kong,  
 D. S. Lambrecht,  WanZhen Liang,  C. Ochsenfeld,  V. A. Rassolov,  
 L. V. Slipchenko,  J. E. Subotnik,  T. Van Voorhis,  J. M. Herbert,  
 A. I. Krylov,  P. M. W. Gill,  M. Head-Gordon

 Contributors to earlier versions of Q-Chem not listed above: 
 R. D. Adamson,  B. Austin,  J. Baker,  G. J. O. Beran,  K. Brandhorst,  
 S. T. Brown,  E. F. C. Byrd,  A. K. Chakraborty,  C.-L. Cheng,  
 Siu Hung Chien,  D. M. Chipman,  D. L. Crittenden,  H. Dachsel,  
 R. J. Doerksen,  A. D. Dutoi,  L. Fusti-Molnar,  W. A. Goddard III,  
 A. Golubeva-Zadorozhnaya,  S. R. Gwaltney,  G. Hawkins,  A. Heyden,  
 S. Hirata,  G. Kedziora,  F. J. Keil,  C. Kelley,  Jihan Kim,  R. A. King,  
 R. Z. Khaliullin,  P. P. Korambath,  W. Kurlancheek,  A. M. Lee,  M. S. Lee,  
 S. V. Levchenko,  Ching Yeh Lin,  D. Liotard,  R. C. Lochan,  I. Lotan,  
 P. E. Maslen,  N. Nair,  D. P. O'Neill,  D. Neuhauser,  E. Neuscamman,  
 C. M. Oana,  R. Olson,  B. Peters,  R. Peverati,  P. A. Pieniazek,  
 Y. M. Rhee,  J. Ritchie,  M. A. Rohrdanz,  E. Rosta,  N. J. Russ,  
 H. F. Schaefer III,  N. E. Schultz,  N. Shenvi,  A. C. Simmonett,  A. Sodt,  
 D. Stuck,  K. S. Thanthiriwatte,  V. Vanovschi,  Tao Wang,  A. Warshel,  
 C. F. Williams,  Q. Wu,  X. Xu,  W. Zhang

 Please cite Q-Chem as follows:
 Y. Shao et al., Mol. Phys. 113, 184-215 (2015)
 DOI: 10.1080/00268976.2014.952696

 Q-Chem 5.3.0 for Intel X86 EM64T Linux

 Parts of Q-Chem use Armadillo 9.800.1 (Horizon Scraper).
 http://arma.sourceforge.net/

 Q-Chem begins on Mon Mar 16 20:30:07 2020  

Host: 
0

     Scratch files written to /lscratch/mscheure/stetrazine_gs_adc3_343070.Meister/qchem8672//
Processing $rem in /export/home/mscheure/data/qchem_ccman2_pe/qchem/config/preferences:
Processing $rem in /export/home/mscheure/.qchemrc:

Checking the input file for inconsistencies... 	...done.

--------------------------------------------------------------
User input:
--------------------------------------------------------------
$molecule
 0 1
N	0.6628000000	-1.1965113333	0.0000000000
N	-0.6628000000	-1.1965113333	0.0000000000
C	-1.2672010000	0.0000000000	0.0000000000
N	-0.6628000000	1.1965113333	0.0000000000
N	0.6628000000	1.1965113333	0.0000000000
C	1.2672010000	0.0000003333	0.0000000000
H	2.3398010000	0.0000000000	0.0000000000
H	-2.3398010000	0.0000003333	0.0000000000
$end

$rem
   METHOD            adc(3)
   BASIS             gen
   PURECART 1
   EE_SINGLETS       [0,0,0,0,0,1,1,1]
   symmetry         false
   mem_total 80000
   mem_static 2000
   threads 12
$end

$basis
H     0
S   4   1.00
     33.685014                .006068
      5.094788                .045316
      1.158786                .202846
      0.325840                .503709
S   1   1.00
      0.102741               1.00000
S   1   1.00
      0.032400               1.00000
P   2   1.00
      1.1588                  .188440
      0.3258                  .882420
P   2   1.00
      0.1027                  .117800
      0.0324                  .004200
****
C     0
S   5   1.00
   5240.6353                  .000937
    782.20480                 .007228
    178.35083                 .036344
     50.815942                .130600
     16.823562                .318931
S   2   1.00
      6.175776                .438742
      2.418049                .214974
S   1   1.00
      0.511900               1.
S   1   1.00
      0.156590               1.
S   1   1.00
      0.047900               1.
P   4   1.00
     18.841800                .013887
      4.159240                .086279
      1.206710                .288744
      0.385540                .499411
P   1   1.00
      0.121940               1.
P   1   1.00
      0.038568               1.
D   2   1.00
      1.206710                .262852
      0.385540                .804300
D   2   1.00
      0.121940                .653500
      0.038658                .863600
****
N     0
S   5   1.00
   8104.0716                  .000802
   1216.0215                  .006174
    277.23428                 .031233
     76.904023                .115198
     25.874419                .296951
S   2   1.00
      9.346767                .447349
      3.579794                .245003
S   1   1.00
      0.739610               1.
S   1   1.00
      0.222617               1.
S   1   1.00
      0.067006               1.
P   4   1.00
     26.868987                .014478
      5.991227                .091156
      1.750842                .297420
      0.560511                .493796
P   1   1.00
      0.175948               1.
P   1   1.00
      0.055231               1.
D   2   1.00
      1.750842                .224774
      0.560511                .659562
D   2   1.00
      0.175948                .871355
      0.055231                .704217
****
O     0
S   5   1.00
  10662.285                   .000799
   1599.7097                  .006153
    364.72526                 .031157
    103.65179                 .115596
     33.905805                .301552
S   2   1.00
     12.287469                .444870
      4.756805                .243172
S   1   1.00
      1.004271               1.
S   1   1.00
      0.300686               1.
S   1   1.00
      0.09003                1.
P   4   1.00
     34.856463                .015648
      7.843131                .098197
      2.306249                .307768
      0.723164                .492470
P   1   1.00
      0.214882               1.
P   1   1.00
      0.06385                1.
D   2   1.00
      2.3062                  .20270
      0.7232                  .5791
D   2   1.00
      0.2149                  .78545
      0.0639                  .53387
****
$end
--------------------------------------------------------------
 Atom   4: ( -0.6627991375,  1.1965117556,  0.0000000000)
         ->( -0.6627991375,  1.1965118667, -0.0000000000)
 Atom   2: ( -0.6628008625, -1.1965109110,  0.0000000000)
         ->( -0.6627991375, -1.1965118667,  0.0000000000)
 Atom   5: (  0.6628008625,  1.1965107999, -0.0000000000)
         ->(  0.6627991375,  1.1965118667,  0.0000000000)
 Atom   6: (  1.2672010000, -0.0000006358, -0.0000000000)
         ->(  1.2672010000, -0.0000008580,  0.0000000000)
 Atom   3: ( -1.2672010000,  0.0000008580,  0.0000000000)
         ->( -1.2672010000,  0.0000000000,  0.0000000000)
 Atom   8: ( -2.3398010000,  0.0000019645,  0.0000000000)
         ->( -2.3398010000,  0.0000017423, -0.0000000000)
 Atom   7: (  2.3398010000, -0.0000017423, -0.0000000000)
         ->(  2.3398010000,  0.0000000000,  0.0000000000)
 ----------------------------------------------------------------
             Standard Nuclear Orientation (Angstroms)
    I     Atom           X                Y                Z
 ----------------------------------------------------------------
    1      N       0.6627991375    -1.1965118667    -0.0000000000
    2      N      -0.6627991375    -1.1965118667     0.0000000000
    3      C      -1.2672010000     0.0000000000     0.0000000000
    4      N      -0.6627991375     1.1965118667    -0.0000000000
    5      N       0.6627991375     1.1965118667     0.0000000000
    6      C       1.2672010000    -0.0000008580     0.0000000000
    7      H       2.3398010000     0.0000000000     0.0000000000
    8      H      -2.3398010000     0.0000017423    -0.0000000000
 ----------------------------------------------------------------
 Molecular Point Group                 D2h   NOp =  8
 Largest Abelian Subgroup              D2h   NOp =  8
 Nuclear Repulsion Energy =         212.30632380 hartrees
 There are       21 alpha and       21 beta electrons
 Requested basis set is non-standard
 There are 70 shells and 162 basis functions
 Total memory of 80000 MB is distributed as follows: 
   MEM_STATIC is set to 2000 MB
   QALLOC/CCMAN JOB total memory use is  78000 MB
 Warning: actual memory use might exceed 80000 MB

 Total QAlloc Memory Limit  80000 MB
 Mega-Array Size      1956 MB
 MEM_STATIC part      2000 MB

                       Distance Matrix (Angstroms)
             N (  1)   N (  2)   C (  3)   N (  4)   N (  5)   C (  6)
   N (  2)  1.325598
   C (  3)  2.270802  1.340501
   N (  4)  2.735649  2.393024  1.340501
   N (  5)  2.393024  2.735649  2.270802  1.325598
   C (  6)  1.340500  2.270801  2.534402  2.270802  1.340502
   H (  7)  2.060091  3.232220  3.607002  3.232220  2.060091  1.072600
   H (  8)  3.232221  2.060092  1.072600  2.060090  3.232220  3.607002
             H (  7)
   H (  8)  4.679602
 
 A cutoff of  1.0D-11 yielded   2443 shell pairs
 There are     13347 function pairs (     15429 Cartesian)
 Smallest overlap matrix eigenvalue = 7.89E-06

 Scale SEOQF with 1.000000e-01/1.000000e-01/1.000000e-01

 Standard Electronic Orientation quadrupole field applied
 Nucleus-field energy     =     0.0000000044 hartrees
 Guess MOs from core Hamiltonian diagonalization
 A restricted Hartree-Fock SCF calculation will be
 performed using Pulay DIIS extrapolation
 SCF converges when DIIS error is below 1.0E-08
 using 12 threads for integral computing
 -------------------------------------------------------
 OpenMP Integral computing Module                
 Release: version 2.0, May 2017, Q-Chem Inc. Pleasanton 
 -------------------------------------------------------
 ---------------------------------------
  Cycle       Energy         DIIS Error
 ---------------------------------------
    1    -262.8740140172      1.01E-01
    2    -224.4324955003      7.89E-02
    3    -286.1284067919      4.62E-02
    4    -293.3974689685      1.95E-02
    5    -294.5103329698      6.17E-03
    6    -294.6526843830      9.68E-04
    7    -294.6599224594      3.58E-04
    8    -294.6610055141      1.29E-04
    9    -294.6611380986      2.24E-05
   10    -294.6611430136      5.07E-06
   11    -294.6611431780      8.47E-07
   12    -294.6611431818      2.87E-07
   13    -294.6611431820      1.17E-07
   14    -294.6611431821      1.82E-08
   15    -294.6611431820      3.01E-09 Convergence criterion met
 ---------------------------------------
 SCF time:  CPU 182.95 s  wall 15.25 s
 SCF   energy in the final basis set = -294.66114318
 Total energy in the final basis set = -294.66114318
================================================================================
|                                                                              |
|                                 A D C  M A N                                 |
|                                                                              |
 ------------------------------------------------------------------------------ 
|                                                                              |
| Components:                                                                  |
|                                                                              |
| - libvmm - 1.3-trunk                                                         |
|   Authors:                                                                   |
|   Evgeny Epifanovsky, Ilya Kaliman                                           |
|                                                                              |
| - libtensor - 2.5-trunk                                                      |
|   Authors:                                                                   |
|   Evgeny Epifanovsky, Michael Wormit, Dmitry Zuev, Sam Manzer,               |
|   Ilya Kaliman                                                               |
|                                                                              |
| - libwfa - 1.1-trunk                                                         |
|   Authors:                                                                   |
|   Felix Plasser, Stefanie Mewes (Baeppler), Benjamin Thomitzni,              |
|   Michael Wormit, Feng Chen, Anna I. Krylov, Pavel Pokhilko                  |
|                                                                              |
| - libadc - 1.1-trunk                                                         |
|   Authors:                                                                   |
|   Michael Wormit, Adrian L. Dempwolff, Philipp H. P. Harbach,                |
|   Caroline Krauter, Dirk Rehn, Matthias Schneider, Jan Wenzel                |
|                                                                              |
| - adcman - 2.6-trunk                                                         |
|   Authors:                                                                   |
|   Michael Wormit, Adrian L. Dempwolff, Philipp H. P. Harbach,                |
|   Caroline Krauter, Daniel Lefrancois, Jan-Michael Mewes, Dirk Rehn,         |
|   Matthias Schneider, Jan Wenzel, Andreas Dreuw                              |
|                                                                              |
| Authors of earlier versions of ADCMAN:                                       |
| Andreas Dreuw, Jan Hendrik Starcke, Dirk Rehn, Michael Wormit                |
|                                                                              |
================================================================================

 
 Alpha MOs, Restricted
 -- Occupied --                  
-15.665 -15.665 -15.664 -15.664 -11.347 -11.347  -1.440  -1.337
  1 B2u   1 Ag    1 B1g   1 B3u   2 B3u   2 Ag    3 Ag    2 B2u                
 -1.192  -1.027  -0.963  -0.793  -0.753  -0.705  -0.646  -0.566
  3 B3u   2 B1g   4 Ag    3 B2u   5 Ag    4 B3u   1 B1u   4 B2u                
 -0.536  -0.531  -0.497  -0.434  -0.422
  5 B3u   6 Ag    1 B3g   1 B2g   3 B1g                                        
 -- Virtual --                   
  0.023   0.035   0.041   0.060   0.082   0.086   0.092   0.092
  1 Au    7 Ag    6 B3u   2 B1u   5 B2u   4 B1g   3 B1u   8 Ag                 
  0.097   0.121   0.121   0.139   0.149   0.153   0.156   0.199
  2 B2g   9 Ag    7 B3u   6 B2u   2 B3g   8 B3u  10 Ag    4 B1u                
  0.200   0.206   0.217   0.224   0.230   0.244   0.263   0.267
  9 B3u   5 B1g   2 Au    7 B2u   6 B1g   5 B1u  11 Ag    3 B2g                
  0.271   0.271   0.274   0.275   0.301   0.309   0.314   0.321
  8 B2u  10 B3u  12 Ag    4 B2g   7 B1g  13 Ag    3 B3g  14 Ag                 
  0.329   0.342   0.343   0.375   0.378   0.391   0.408   0.411
 11 B3u  12 B3u   9 B2u   6 B1u   5 B2g   8 B1g  15 Ag   10 B2u                
  0.419   0.422   0.450   0.468   0.482   0.483   0.495   0.522
  7 B1u   3 Au    9 B1g  13 B3u  16 Ag   14 B3u   6 B2g  10 B1g                
  0.526   0.539   0.599   0.601   0.604   0.618   0.628   0.648
 17 Ag   15 B3u  11 B2u   4 B3g  12 B2u  16 B3u   5 B3g  18 Ag                 
  0.667   0.685   0.701   0.707   0.717   0.718   0.721   0.725
 17 B3u  11 B1g  19 Ag   18 B3u   8 B1u  13 B2u  20 Ag    7 B2g                
  0.758   0.762   0.798   0.810   0.811   0.849   0.857   0.867
  9 B1u   4 Au   12 B1g   8 B2g  14 B2u  13 B1g  19 B3u   5 Au                 
  0.911   0.961   0.964   0.997   1.011   1.011   1.067   1.075
 21 Ag    6 B3g  20 B3u  10 B1u   9 B2g  14 B1g  21 B3u  22 Ag                 
  1.109   1.139   1.142   1.153   1.171   1.199   1.219   1.270
 10 B2g  15 B2u  11 B1u   6 Au   23 Ag   22 B3u  15 B1g  24 Ag                 
  1.350   1.360   1.377   1.394   1.408   1.436   1.449   1.545
 16 B1g  16 B2u  17 B2u   7 B3g  23 B3u  25 Ag   11 B2g  12 B1u                
  1.549   1.553   1.585   1.614   1.633   1.652   1.744   1.757
 18 B2u  24 B3u  17 B1g  26 Ag    7 Au   18 B1g  12 B2g  19 B2u                
  1.801   1.818   1.830   1.851   1.883   1.954   1.972   2.076
 25 B3u   8 B3g  13 B1u  27 Ag   26 B3u  20 B2u  28 Ag   29 Ag                 
  2.178   2.236   2.278   2.322   2.322   2.397   2.454   2.463
 27 B3u  21 B2u  14 B1u  28 B3u  19 B1g   9 B3g  20 B1g   8 Au                 
  2.506   2.532   2.579   2.597   2.745   2.818   2.850   2.987
 30 Ag   29 B3u  22 B2u  13 B2g  14 B2g  31 Ag   21 B1g   9 Au                 
  2.992   3.084   3.114   3.222   3.279   3.471   3.948  22.848
 23 B2u  32 Ag   30 B3u  22 B1g  31 B3u  23 B1g  32 B3u  33 Ag                 
 23.090  33.732  33.818  34.416  34.509
 33 B3u  34 Ag   24 B2u  34 B3u  24 B1g                                        
 
 Beta MOs, Restricted
 -- Occupied --                  
-15.665 -15.665 -15.664 -15.664 -11.347 -11.347  -1.440  -1.337
  1 B2u   1 Ag    1 B1g   1 B3u   2 B3u   2 Ag    3 Ag    2 B2u                
 -1.192  -1.027  -0.963  -0.793  -0.753  -0.705  -0.646  -0.566
  3 B3u   2 B1g   4 Ag    3 B2u   5 Ag    4 B3u   1 B1u   4 B2u                
 -0.536  -0.531  -0.497  -0.434  -0.422
  5 B3u   6 Ag    1 B3g   1 B2g   3 B1g                                        
 -- Virtual --                   
  0.023   0.035   0.041   0.060   0.082   0.086   0.092   0.092
  1 Au    7 Ag    6 B3u   2 B1u   5 B2u   4 B1g   3 B1u   8 Ag                 
  0.097   0.121   0.121   0.139   0.149   0.153   0.156   0.199
  2 B2g   9 Ag    7 B3u   6 B2u   2 B3g   8 B3u  10 Ag    4 B1u                
  0.200   0.206   0.217   0.224   0.230   0.244   0.263   0.267
  9 B3u   5 B1g   2 Au    7 B2u   6 B1g   5 B1u  11 Ag    3 B2g                
  0.271   0.271   0.274   0.275   0.301   0.309   0.314   0.321
  8 B2u  10 B3u  12 Ag    4 B2g   7 B1g  13 Ag    3 B3g  14 Ag                 
  0.329   0.342   0.343   0.375   0.378   0.391   0.408   0.411
 11 B3u  12 B3u   9 B2u   6 B1u   5 B2g   8 B1g  15 Ag   10 B2u                
  0.419   0.422   0.450   0.468   0.482   0.483   0.495   0.522
  7 B1u   3 Au    9 B1g  13 B3u  16 Ag   14 B3u   6 B2g  10 B1g                
  0.526   0.539   0.599   0.601   0.604   0.618   0.628   0.648
 17 Ag   15 B3u  11 B2u   4 B3g  12 B2u  16 B3u   5 B3g  18 Ag                 
  0.667   0.685   0.701   0.707   0.717   0.718   0.721   0.725
 17 B3u  11 B1g  19 Ag   18 B3u   8 B1u  13 B2u  20 Ag    7 B2g                
  0.758   0.762   0.798   0.810   0.811   0.849   0.857   0.867
  9 B1u   4 Au   12 B1g   8 B2g  14 B2u  13 B1g  19 B3u   5 Au                 
  0.911   0.961   0.964   0.997   1.011   1.011   1.067   1.075
 21 Ag    6 B3g  20 B3u  10 B1u   9 B2g  14 B1g  21 B3u  22 Ag                 
  1.109   1.139   1.142   1.153   1.171   1.199   1.219   1.270
 10 B2g  15 B2u  11 B1u   6 Au   23 Ag   22 B3u  15 B1g  24 Ag                 
  1.350   1.360   1.377   1.394   1.408   1.436   1.449   1.545
 16 B1g  16 B2u  17 B2u   7 B3g  23 B3u  25 Ag   11 B2g  12 B1u                
  1.549   1.553   1.585   1.614   1.633   1.652   1.744   1.757
 18 B2u  24 B3u  17 B1g  26 Ag    7 Au   18 B1g  12 B2g  19 B2u                
  1.801   1.818   1.830   1.851   1.883   1.954   1.972   2.076
 25 B3u   8 B3g  13 B1u  27 Ag   26 B3u  20 B2u  28 Ag   29 Ag                 
  2.178   2.236   2.278   2.322   2.322   2.397   2.454   2.463
 27 B3u  21 B2u  14 B1u  28 B3u  19 B1g   9 B3g  20 B1g   8 Au                 
  2.506   2.532   2.579   2.597   2.745   2.818   2.850   2.987
 30 Ag   29 B3u  22 B2u  13 B2g  14 B2g  31 Ag   21 B1g   9 Au                 
  2.992   3.084   3.114   3.222   3.279   3.471   3.948  22.848
 23 B2u  32 Ag   30 B3u  22 B1g  31 B3u  23 B1g  32 B3u  33 Ag                 
 23.090  33.732  33.818  34.416  34.509
 33 B3u  34 Ag   24 B2u  34 B3u  24 B1g                                        

--------------------------------------------------------------------------------
                                   HF Summary                                   
--------------------------------------------------------------------------------
  Energy:                                                 -294.6611431820 a.u.
  Dip. moment [a.u.]:                  [  -0.000000,    0.000001,   -0.000000]
  Total dipole [Debye]:                                               0.000003
  <r^2> [a.u.]:                        [ 172.540404,  176.027102,   25.060555]
  Total <r^2> [a.u.]:                                               373.628062
--------------------------------------------------------------------------------

--------------------------------------------------------------------------------
                                 MP(2) Summary                                  
--------------------------------------------------------------------------------
  MP energy contribution:                                   -1.0283192298 a.u.
  Total energy:                                           -295.6894624118 a.u.
  Dip. moment [a.u.]:                  [   0.000000,   -0.000003,    0.000000]
  Total dipole [Debye]:                                               0.000007
  <r^2> [a.u.]:                        [ 173.003164,  176.265471,   24.916383]
  Total <r^2> [a.u.]:                                               374.185017
--------------------------------------------------------------------------------

--------------------------------------------------------------------------------
                                 MP(3) Summary                                  
--------------------------------------------------------------------------------
  MP energy contribution:                                   -0.0053376523 a.u.
  Total energy:                                           -295.6948000641 a.u.
--------------------------------------------------------------------------------
  Starting Davidson for singlet states of irrep B1u ... 
--------------------------------------------------------------------------------
   It NVec Conv  Avg. Norm  Max. Norm  Conv. states           Remark
--------------------------------------------------------------------------------
         1    0  6.121e-01  6.121e-01  0.2692 n               Guess.
    1    2    0  2.125e-01  2.125e-01  0.1142 n               
    2    3    0  6.219e-02  6.219e-02  0.0927 n               
    3    4    0  2.760e-02  2.760e-02  0.0901 n               
    4    5    0  1.080e-02  1.080e-02  0.0896 n               
    5    2    0  4.347e-03  4.347e-03  0.0896 n               Subspace collapsed.
    6    3    0  2.682e-03  2.682e-03  0.0895 n               
    7    4    0  9.508e-04  9.508e-04  0.0895 n               
    8    5    0  3.295e-04  3.295e-04  0.0895 n               
    9    2    0  1.301e-04  1.301e-04  0.0895 n               Subspace collapsed.
   10    3    0  1.089e-04  1.089e-04  0.0895 n               
   11    4    0  5.402e-05  5.402e-05  0.0895 n               
   12    5    0  2.529e-05  2.529e-05  0.0895 n               
   13    2    0  1.273e-05  1.273e-05  0.0895 n               Subspace collapsed.
   14    3    0  7.826e-06  7.826e-06  0.0895 n               
   15    4    0  3.386e-06  3.386e-06  0.0895 n               
   16    5    0  2.022e-06  2.022e-06  0.0895 n               
   17    2    1  8.961e-07  8.961e-07  0.0895 y               Converged.
--------------------------------------------------------------------------------
  Davidson Summary: 
 ------------------------------------------------------------
  State  0: excitation energy =   0.0895 a.u.   (converged)
 ------------------------------------------------------------

  Starting Davidson for singlet states of irrep B2u ... 
--------------------------------------------------------------------------------
   It NVec Conv  Avg. Norm  Max. Norm  Conv. states           Remark
--------------------------------------------------------------------------------
         1    0  5.561e-01  5.561e-01  0.3842 n               Guess.
    1    2    0  2.332e-01  2.332e-01  0.2233 n               
    2    3    0  1.012e-01  1.012e-01  0.1957 n               
    3    4    0  5.207e-02  5.207e-02  0.1888 n               
    4    5    0  3.307e-02  3.307e-02  0.1865 n               
    5    2    0  1.334e-02  1.334e-02  0.1860 n               Subspace collapsed.
    6    3    0  1.393e-02  1.393e-02  0.1857 n               
    7    4    0  8.079e-03  8.079e-03  0.1855 n               
    8    5    0  2.570e-03  2.570e-03  0.1855 n               
    9    2    0  1.214e-03  1.214e-03  0.1855 n               Subspace collapsed.
   10    3    0  7.923e-04  7.923e-04  0.1855 n               
   11    4    0  3.882e-04  3.882e-04  0.1855 n               
   12    5    0  2.587e-04  2.587e-04  0.1855 n               
   13    2    0  1.254e-04  1.254e-04  0.1855 n               Subspace collapsed.
   14    3    0  1.221e-04  1.221e-04  0.1855 n               
   15    4    0  7.119e-05  7.119e-05  0.1855 n               
   16    5    0  4.161e-05  4.161e-05  0.1855 n               
   17    2    0  2.238e-05  2.238e-05  0.1855 n               Subspace collapsed.
   18    3    0  1.606e-05  1.606e-05  0.1855 n               
   19    4    0  6.819e-06  6.819e-06  0.1855 n               
   20    5    0  6.353e-06  6.353e-06  0.1855 n               
   21    2    0  3.167e-06  3.167e-06  0.1855 n               Subspace collapsed.
   22    3    0  3.121e-06  3.121e-06  0.1855 n               
   23    4    0  1.639e-06  1.639e-06  0.1855 n               
   24    5    0  1.147e-06  1.147e-06  0.1855 n               
   25    2    1  6.252e-07  6.252e-07  0.1855 y               Converged.
--------------------------------------------------------------------------------
  Davidson Summary: 
 ------------------------------------------------------------
  State  0: excitation energy =   0.1855 a.u.   (converged)
 ------------------------------------------------------------

  Starting Davidson for singlet states of irrep B3u ... 
--------------------------------------------------------------------------------
   It NVec Conv  Avg. Norm  Max. Norm  Conv. states           Remark
--------------------------------------------------------------------------------
         1    0  5.613e-01  5.613e-01  0.4481 n               Guess.
    1    2    0  3.681e-01  3.681e-01  0.3715 n               
    2    3    0  1.857e-01  1.857e-01  0.2966 n               
    3    4    0  8.293e-02  8.293e-02  0.2776 n               
    4    5    0  5.219e-02  5.219e-02  0.2721 n               
    5    2    0  2.972e-02  2.972e-02  0.2702 n               Subspace collapsed.
    6    3    0  5.649e-02  5.649e-02  0.2676 n               
    7    4    0  3.835e-02  3.835e-02  0.2643 n               
    8    5    0  2.571e-02  2.571e-02  0.2630 n               
    9    2    0  1.957e-02  1.957e-02  0.2624 n               Subspace collapsed.
   10    3    0  1.785e-02  1.785e-02  0.2619 n               
   11    4    0  9.621e-03  9.621e-03  0.2616 n               
   12    5    0  1.552e-02  1.552e-02  0.2614 n               
   13    2    0  5.959e-03  5.959e-03  0.2613 n               Subspace collapsed.
   14    3    0  8.894e-03  8.894e-03  0.2612 n               
   15    4    0  7.564e-03  7.564e-03  0.2611 n               
   16    5    0  6.059e-03  6.059e-03  0.2610 n               
   17    2    0  4.859e-03  4.859e-03  0.2610 n               Subspace collapsed.
   18    3    0  4.119e-03  4.119e-03  0.2610 n               
   19    4    0  2.333e-03  2.333e-03  0.2610 n               
   20    5    0  3.507e-03  3.507e-03  0.2609 n               
   21    2    0  1.590e-03  1.590e-03  0.2609 n               Subspace collapsed.
   22    3    0  2.241e-03  2.241e-03  0.2609 n               
   23    4    0  1.724e-03  1.724e-03  0.2609 n               
   24    5    0  1.569e-03  1.569e-03  0.2609 n               
   25    2    0  1.193e-03  1.193e-03  0.2609 n               Subspace collapsed.
   26    3    0  1.029e-03  1.029e-03  0.2609 n               
   27    4    0  5.972e-04  5.972e-04  0.2609 n               
   28    5    0  8.796e-04  8.796e-04  0.2609 n               
   29    2    0  4.317e-04  4.317e-04  0.2609 n               Subspace collapsed.
   30    3    0  5.578e-04  5.578e-04  0.2609 n               
   31    4    0  4.349e-04  4.349e-04  0.2609 n               
   32    5    0  4.063e-04  4.063e-04  0.2609 n               
   33    2    0  3.038e-04  3.038e-04  0.2609 n               Subspace collapsed.
   34    3    0  2.641e-04  2.641e-04  0.2609 n               
   35    4    0  1.578e-04  1.578e-04  0.2609 n               
   36    5    0  2.276e-04  2.276e-04  0.2609 n               
   37    2    0  1.144e-04  1.144e-04  0.2609 n               Subspace collapsed.
   38    3    0  1.438e-04  1.438e-04  0.2609 n               
   39    4    0  1.118e-04  1.118e-04  0.2609 n               
   40    5    0  1.069e-04  1.069e-04  0.2609 n               
   41    2    0  7.908e-05  7.908e-05  0.2609 n               Subspace collapsed.
   42    3    0  6.935e-05  6.935e-05  0.2609 n               
   43    4    0  4.247e-05  4.247e-05  0.2609 n               
   44    5    0  5.985e-05  5.985e-05  0.2609 n               
   45    2    0  3.089e-05  3.089e-05  0.2609 n               Subspace collapsed.
   46    3    0  3.784e-05  3.784e-05  0.2609 n               
   47    4    0  2.935e-05  2.935e-05  0.2609 n               
   48    5    0  2.848e-05  2.848e-05  0.2609 n               
   49    2    0  2.094e-05  2.094e-05  0.2609 n               Subspace collapsed.
   50    3    0  1.853e-05  1.853e-05  0.2609 n               
   51    4    0  1.161e-05  1.161e-05  0.2609 n               
   52    5    0  1.595e-05  1.595e-05  0.2609 n               
   53    2    0  8.464e-06  8.464e-06  0.2609 n               Subspace collapsed.
   54    3    0  1.012e-05  1.012e-05  0.2609 n               
   55    4    0  7.824e-06  7.824e-06  0.2609 n               
   56    5    0  7.669e-06  7.669e-06  0.2609 n               
   57    2    0  5.625e-06  5.625e-06  0.2609 n               Subspace collapsed.
   58    3    0  5.022e-06  5.022e-06  0.2609 n               
   59    4    0  3.214e-06  3.214e-06  0.2609 n               
--------------------------------------------------------------------------------
  Davidson Summary: 
 ------------------------------------------------------------
  State  0: excitation energy =   0.2609 a.u.   (not converged)
 ------------------------------------------------------------


--------------------------------------------------------------------------------
                             Excited State Summary
--------------------------------------------------------------------------------
--------------------------------------------------------------------------------

  Excited state 1 (singlet, B1u)                                   [converged]
  ----------------------------------------------------------------------------
  Term symbol:  1 (1) B1u                                   R^2 =  8.96147e-07

  Total energy:                                           -295.6052682862 a.u.
  Excitation energy:                                               2.436284 eV

  Osc. strength:                                                      0.006643
  Trans. dip. moment [a.u.]:           [  -0.000000,    0.000000,    0.333620]
  <i|r^2|0> [a.u.]:                    [   0.000000,    0.000000,    0.000000]


  V1^2 = 0.8902, V2^2 = 0.1098

  Important amplitudes:
       occ i       occ j       vir a        vir b           v   
    -------------------------------------------------------------
     3 (B1g) A                1 (Au ) A                  -0.6559
     3 (B1g) A                2 (Au ) A                   0.0840
    -------------------------------------------------------------
  ----------------------------------------------------------------------------


  Excited state 2 (singlet, B2u)                                   [converged]
  ----------------------------------------------------------------------------
  Term symbol:  1 (1) B2u                                   R^2 =  6.25190e-07

  Total energy:                                           -295.5093102883 a.u.
  Excitation energy:                                               5.047433 eV

  Osc. strength:                                                      0.068519
  Trans. dip. moment [a.u.]:           [  -0.000000,   -0.744376,    0.000000]
  <i|r^2|0> [a.u.]:                    [   0.000005,    0.000001,    0.000002]


  V1^2 = 0.8483, V2^2 = 0.1517

  Important amplitudes:
       occ i       occ j       vir a        vir b           v   
    -------------------------------------------------------------
     1 (B2g) A                1 (Au ) A                  -0.5844
     1 (B3g) A                2 (B1u) A                   0.2049
    -------------------------------------------------------------
  ----------------------------------------------------------------------------


  Excited state 3 (singlet, B3u)                               [not converged]
  ----------------------------------------------------------------------------
  Term symbol:  1 (1) B3u                                   R^2 =  3.21387e-06

  Total energy:                                           -295.4338822536 a.u.
  Excitation energy:                                               7.099935 eV



  V1^2 = 0.9134, V2^2 = 0.0866

  Important amplitudes:
       occ i       occ j       vir a        vir b           v   
    -------------------------------------------------------------
     1 (B3g) A                1 (Au ) A                   0.4455
     1 (B2g) A                2 (B1u) A                   0.3765
    -------------------------------------------------------------
  ----------------------------------------------------------------------------


--------------------------------------------------------------------------------
  Time of ADC calculation:  CPU 1913.77 s  wall 254.12 s
================================================================================
 
 --------------------------------------------------------------
             Orbital Energies (a.u.) and Symmetries
 --------------------------------------------------------------
 
 Alpha MOs, Restricted
 -- Occupied --                  
-15.665 -15.665 -15.664 -15.664 -11.347 -11.347  -1.440  -1.337
  1 B2u   1 Ag    1 B1g   1 B3u   2 B3u   2 Ag    3 Ag    2 B2u                
 -1.192  -1.027  -0.963  -0.793  -0.753  -0.705  -0.646  -0.566
  3 B3u   2 B1g   4 Ag    3 B2u   5 Ag    4 B3u   1 B1u   4 B2u                
 -0.536  -0.531  -0.497  -0.434  -0.422
  5 B3u   6 Ag    1 B3g   1 B2g   3 B1g                                        
 -- Virtual --                   
  0.023   0.035   0.041   0.060   0.082   0.086   0.092   0.092
  1 Au    7 Ag    6 B3u   2 B1u   5 B2u   4 B1g   3 B1u   8 Ag                 
  0.097   0.121   0.121   0.139   0.149   0.153   0.156   0.199
  2 B2g   9 Ag    7 B3u   6 B2u   2 B3g   8 B3u  10 Ag    4 B1u                
  0.200   0.206   0.217   0.224   0.230   0.244   0.263   0.267
  9 B3u   5 B1g   2 Au    7 B2u   6 B1g   5 B1u  11 Ag    3 B2g                
  0.271   0.271   0.274   0.275   0.301   0.309   0.314   0.321
  8 B2u  10 B3u  12 Ag    4 B2g   7 B1g  13 Ag    3 B3g  14 Ag                 
  0.329   0.342   0.343   0.375   0.378   0.391   0.408   0.411
 11 B3u  12 B3u   9 B2u   6 B1u   5 B2g   8 B1g  15 Ag   10 B2u                
  0.419   0.422   0.450   0.468   0.482   0.483   0.495   0.522
  7 B1u   3 Au    9 B1g  13 B3u  16 Ag   14 B3u   6 B2g  10 B1g                
  0.526   0.539   0.599   0.601   0.604   0.618   0.628   0.648
 17 Ag   15 B3u  11 B2u   4 B3g  12 B2u  16 B3u   5 B3g  18 Ag                 
  0.667   0.685   0.701   0.707   0.717   0.718   0.721   0.725
 17 B3u  11 B1g  19 Ag   18 B3u   8 B1u  13 B2u  20 Ag    7 B2g                
  0.758   0.762   0.798   0.810   0.811   0.849   0.857   0.867
  9 B1u   4 Au   12 B1g   8 B2g  14 B2u  13 B1g  19 B3u   5 Au                 
  0.911   0.961   0.964   0.997   1.011   1.011   1.067   1.075
 21 Ag    6 B3g  20 B3u  10 B1u   9 B2g  14 B1g  21 B3u  22 Ag                 
  1.109   1.139   1.142   1.153   1.171   1.199   1.219   1.270
 10 B2g  15 B2u  11 B1u   6 Au   23 Ag   22 B3u  15 B1g  24 Ag                 
  1.350   1.360   1.377   1.394   1.408   1.436   1.449   1.545
 16 B1g  16 B2u  17 B2u   7 B3g  23 B3u  25 Ag   11 B2g  12 B1u                
  1.549   1.553   1.585   1.614   1.633   1.652   1.744   1.757
 18 B2u  24 B3u  17 B1g  26 Ag    7 Au   18 B1g  12 B2g  19 B2u                
  1.801   1.818   1.830   1.851   1.883   1.954   1.972   2.076
 25 B3u   8 B3g  13 B1u  27 Ag   26 B3u  20 B2u  28 Ag   29 Ag                 
  2.178   2.236   2.278   2.322   2.322   2.397   2.454   2.463
 27 B3u  21 B2u  14 B1u  28 B3u  19 B1g   9 B3g  20 B1g   8 Au                 
  2.506   2.532   2.579   2.597   2.745   2.818   2.850   2.987
 30 Ag   29 B3u  22 B2u  13 B2g  14 B2g  31 Ag   21 B1g   9 Au                 
  2.992   3.084   3.114   3.222   3.279   3.471   3.948  22.848
 23 B2u  32 Ag   30 B3u  22 B1g  31 B3u  23 B1g  32 B3u  33 Ag                 
 23.090  33.732  33.818  34.416  34.509
 33 B3u  34 Ag   24 B2u  34 B3u  24 B1g                                        
 
 Beta MOs, Restricted
 -- Occupied --                  
-15.665 -15.665 -15.664 -15.664 -11.347 -11.347  -1.440  -1.337
  1 B2u   1 Ag    1 B1g   1 B3u   2 B3u   2 Ag    3 Ag    2 B2u                
 -1.192  -1.027  -0.963  -0.793  -0.753  -0.705  -0.646  -0.566
  3 B3u   2 B1g   4 Ag    3 B2u   5 Ag    4 B3u   1 B1u   4 B2u                
 -0.536  -0.531  -0.497  -0.434  -0.422
  5 B3u   6 Ag    1 B3g   1 B2g   3 B1g                                        
 -- Virtual --                   
  0.023   0.035   0.041   0.060   0.082   0.086   0.092   0.092
  1 Au    7 Ag    6 B3u   2 B1u   5 B2u   4 B1g   3 B1u   8 Ag                 
  0.097   0.121   0.121   0.139   0.149   0.153   0.156   0.199
  2 B2g   9 Ag    7 B3u   6 B2u   2 B3g   8 B3u  10 Ag    4 B1u                
  0.200   0.206   0.217   0.224   0.230   0.244   0.263   0.267
  9 B3u   5 B1g   2 Au    7 B2u   6 B1g   5 B1u  11 Ag    3 B2g                
  0.271   0.271   0.274   0.275   0.301   0.309   0.314   0.321
  8 B2u  10 B3u  12 Ag    4 B2g   7 B1g  13 Ag    3 B3g  14 Ag                 
  0.329   0.342   0.343   0.375   0.378   0.391   0.408   0.411
 11 B3u  12 B3u   9 B2u   6 B1u   5 B2g   8 B1g  15 Ag   10 B2u                
  0.419   0.422   0.450   0.468   0.482   0.483   0.495   0.522
  7 B1u   3 Au    9 B1g  13 B3u  16 Ag   14 B3u   6 B2g  10 B1g                
  0.526   0.539   0.599   0.601   0.604   0.618   0.628   0.648
 17 Ag   15 B3u  11 B2u   4 B3g  12 B2u  16 B3u   5 B3g  18 Ag                 
  0.667   0.685   0.701   0.707   0.717   0.718   0.721   0.725
 17 B3u  11 B1g  19 Ag   18 B3u   8 B1u  13 B2u  20 Ag    7 B2g                
  0.758   0.762   0.798   0.810   0.811   0.849   0.857   0.867
  9 B1u   4 Au   12 B1g   8 B2g  14 B2u  13 B1g  19 B3u   5 Au                 
  0.911   0.961   0.964   0.997   1.011   1.011   1.067   1.075
 21 Ag    6 B3g  20 B3u  10 B1u   9 B2g  14 B1g  21 B3u  22 Ag                 
  1.109   1.139   1.142   1.153   1.171   1.199   1.219   1.270
 10 B2g  15 B2u  11 B1u   6 Au   23 Ag   22 B3u  15 B1g  24 Ag                 
  1.350   1.360   1.377   1.394   1.408   1.436   1.449   1.545
 16 B1g  16 B2u  17 B2u   7 B3g  23 B3u  25 Ag   11 B2g  12 B1u                
  1.549   1.553   1.585   1.614   1.633   1.652   1.744   1.757
 18 B2u  24 B3u  17 B1g  26 Ag    7 Au   18 B1g  12 B2g  19 B2u                
  1.801   1.818   1.830   1.851   1.883   1.954   1.972   2.076
 25 B3u   8 B3g  13 B1u  27 Ag   26 B3u  20 B2u  28 Ag   29 Ag                 
  2.178   2.236   2.278   2.322   2.322   2.397   2.454   2.463
 27 B3u  21 B2u  14 B1u  28 B3u  19 B1g   9 B3g  20 B1g   8 Au                 
  2.506   2.532   2.579   2.597   2.745   2.818   2.850   2.987
 30 Ag   29 B3u  22 B2u  13 B2g  14 B2g  31 Ag   21 B1g   9 Au                 
  2.992   3.084   3.114   3.222   3.279   3.471   3.948  22.848
 23 B2u  32 Ag   30 B3u  22 B1g  31 B3u  23 B1g  32 B3u  33 Ag                 
 23.090  33.732  33.818  34.416  34.509
 33 B3u  34 Ag   24 B2u  34 B3u  24 B1g                                        
 --------------------------------------------------------------
 
          Ground-State Mulliken Net Atomic Charges

     Atom                 Charge (a.u.)
  ----------------------------------------
      1 N                    -0.647978
      2 N                    -0.647980
      3 C                     1.496787
      4 N                    -0.647978
      5 N                    -0.647980
      6 C                     1.496787
      7 H                    -0.200829
      8 H                    -0.200829
  ----------------------------------------
  Sum of atomic charges =     0.000000

 -----------------------------------------------------------------
                    Cartesian Multipole Moments
 -----------------------------------------------------------------
    Charge (ESU x 10^10)
                 0.0000
    Dipole Moment (Debye)
         X      -0.0000      Y       0.0000      Z      -0.0000
       Tot       0.0000
    Quadrupole Moments (Debye-Ang)
        XX     -27.8434     XY      -0.0000     YY     -44.2215
        XZ       0.0000     YZ      -0.0000     ZZ     -33.7073
    Octopole Moments (Debye-Ang^2)
       XXX      -0.0000    XXY       0.0000    XYY       0.0000
       YYY       0.0000    XXZ       0.0000    XYZ      -0.0000
       YYZ      -0.0000    XZZ      -0.0000    YZZ       0.0000
       ZZZ       0.0000
    Hexadecapole Moments (Debye-Ang^3)
      XXXX    -183.5962   XXXY      -0.0000   XXYY     -91.2821
      XYYY       0.0000   YYYY    -264.1996   XXXZ      -0.0000
      XXYZ      -0.0000   XYYZ      -0.0000   YYYZ      -0.0000
      XXZZ     -45.6833   XYZZ       0.0000   YYZZ     -44.2304
      XZZZ      -0.0000   YZZZ      -0.0000   ZZZZ     -33.6569
 -----------------------------------------------------------------
Archival summary:
1\1\Knecht17\SP\HF\BasisUnspecified\422\mscheure\MonMar1620:35:162020MonMar1620:35:162020\0\\#,HF,BasisUnspecified,\\0,1\N\N,1,1.3256\C,1,1.3405,2,116.8\H,3,1.0726,1,116.8,2,-180,0\C,2,1.3405,1,116.8,3,0,0\H,5,1.0726,2,116.8,1,180,0\N,5,1.3405,2,126.4,1,-0,0\N,7,1.3256,5,116.8,2,-0,0\\HF=-294.661143\\@

 Total job time:  308.69s(wall), 2140.22s(cpu) 
 Mon Mar 16 20:35:16 2020

        *************************************************************
        *                                                           *
        *  Thank you very much for using Q-Chem.  Have a nice day.  *
        *                                                           *
        *************************************************************


